
     Program PWSCF v.7.2 starts on 19Jan2024 at 15:59: 3 

     This program is part of the open-source Quantum ESPRESSO suite
     for quantum simulation of materials; please cite
         "P. Giannozzi et al., J. Phys.:Condens. Matter 21 395502 (2009);
         "P. Giannozzi et al., J. Phys.:Condens. Matter 29 465901 (2017);
         "P. Giannozzi et al., J. Chem. Phys. 152 154105 (2020);
          URL http://www.quantum-espresso.org", 
     in publications or presentations arising from this work. More details at
     http://www.quantum-espresso.org/quote

     Parallel version (MPI), running on     4 processors

     MPI processes distributed on     1 nodes
     402 MiB available memory on the printing compute node when the environment starts

     Waiting for input...
     Reading input from standard input

     Current dimensions of program PWSCF are:
     Max number of different atomic species (ntypx) = 10
     Max number of k-points (npk) =  40000
     Max angular momentum in pseudopotentials (lmaxx) =  4
     file S.pbe-n-kjpaw_psl.1.0.0.UPF: wavefunction(s)  3S 3P renormalized
     Message from routine setup:
     using ibrav=0 with symmetry is DISCOURAGED, use correct ibrav instead

     R & G space division:  proc/nbgrp/npool/nimage =       4
     Subspace diagonalization in iterative solution of the eigenvalue problem:
     a serial algorithm will be used


     Parallelization info
     --------------------
     sticks:   dense  smooth     PW     G-vecs:    dense   smooth      PW
     Min         148     148     46                14080    14080    2274
     Max         149     149     47                14101    14101    2281
     Sum         595     595    187                56365    56365    9107

     Using Slab Decomposition



     bravais-lattice index     =            0
     lattice parameter (alat)  =       6.0471  a.u.
     unit-cell volume          =     897.6736 (a.u.)^3
     number of atoms/cell      =            4
     number of atomic types    =            2
     number of electrons       =        18.00
     number of Kohn-Sham states=            9
     kinetic-energy cutoff     =      60.0000  Ry
     charge density cutoff     =     240.0000  Ry
     scf convergence threshold =      1.0E-06
     mixing beta               =       0.7000
     number of iterations used =            8  plain     mixing
     energy convergence thresh.=      1.0E-04
     force convergence thresh. =      1.0E-03
     press convergence thresh. =      5.0E-01
     Exchange-correlation= SLA  PW   PBX  PBC
                           (   1   4   3   4   0   0   0)
     nstep                     =           50


     celldm(1)=   6.047124  celldm(2)=   0.000000  celldm(3)=   0.000000
     celldm(4)=   0.000000  celldm(5)=   0.000000  celldm(6)=   0.000000

     crystal axes: (cart. coord. in units of alat)
               a(1) = (   1.000000   0.000000   0.000000 )  
               a(2) = (   0.500000   0.866025   0.000000 )  
               a(3) = (   0.000000   0.000000   4.687500 )  

     reciprocal axes: (cart. coord. in units 2 pi/alat)
               b(1) = (  1.000000 -0.577350  0.000000 )  
               b(2) = (  0.000000  1.154701  0.000000 )  
               b(3) = (  0.000000  0.000000  0.213333 )  


     PseudoPot. # 1 for B  read from file:
     /home/aljawimth/maj/pseudo/B.pbe-n-kjpaw_psl.1.0.0.UPF
     MD5 check sum: 8c825a5969375aca5c2c6ad5945b3059
     Pseudo is Projector augmented-wave + core cor, Zval =  3.0
     Generated using &quot;atomic&quot; code by A. Dal Corso  v.6.3
     Shape of augmentation charge: PSQ
     Using radial grid of 1059 points,  4 beta functions with: 
                l(1) =   0
                l(2) =   0
                l(3) =   1
                l(4) =   1
     Q(r) pseudized with 0 coefficients 


     PseudoPot. # 2 for S  read from file:
     /home/aljawimth/maj/pseudo/S.pbe-n-kjpaw_psl.1.0.0.UPF
     MD5 check sum: fb45dfebcf3e72a4e1bd4a866ec2e262
     Pseudo is Projector augmented-wave + core cor, Zval =  6.0
     Generated using &quot;atomic&quot; code by A. Dal Corso  v.6.3
     Shape of augmentation charge: PSQ
     Using radial grid of 1151 points,  6 beta functions with: 
                l(1) =   0
                l(2) =   0
                l(3) =   1
                l(4) =   1
                l(5) =   2
                l(6) =   2
     Q(r) pseudized with 0 coefficients 


     atomic species   valence    mass     pseudopotential
        B              3.00    10.81100     B ( 1.00)
        S              6.00    32.06500     S ( 1.00)

      6 Sym. Ops. (no inversion) found



   Cartesian axes

     site n.     atom                  positions (alat units)
         1           S   tau(   1) = (   0.5000000   0.2886751   2.5781250  )
         2           B   tau(   2) = (   1.0000000   0.5773503   2.3437500  )
         3           B   tau(   3) = (   1.0000000   0.5773503   1.7343750  )
         4           S   tau(   4) = (   0.5000000   0.2886751   1.5000000  )

     number of k points=    12
                       cart. coord. in units 2pi/alat
        k(    1) = (   0.0000000   0.0000000   0.0000000), wk =   0.0246914
        k(    2) = (   0.0000000   0.1283001   0.0000000), wk =   0.1481481
        k(    3) = (   0.0000000   0.2566001   0.0000000), wk =   0.1481481
        k(    4) = (   0.0000000   0.3849002   0.0000000), wk =   0.1481481
        k(    5) = (   0.0000000   0.5132002   0.0000000), wk =   0.1481481
        k(    6) = (   0.1111111   0.1924501   0.0000000), wk =   0.1481481
        k(    7) = (   0.1111111   0.3207501   0.0000000), wk =   0.2962963
        k(    8) = (   0.1111111   0.4490502   0.0000000), wk =   0.2962963
        k(    9) = (   0.1111111  -0.5773503   0.0000000), wk =   0.1481481
        k(   10) = (   0.2222222   0.3849002   0.0000000), wk =   0.1481481
        k(   11) = (   0.2222222  -0.6415003   0.0000000), wk =   0.2962963
        k(   12) = (   0.3333333  -0.5773503   0.0000000), wk =   0.0493827

     Dense  grid:    56365 G-vectors     FFT dimensions: (  30,  30, 144)

     Estimated max dynamical RAM per process >      61.28 MB

     Estimated total dynamical RAM >     245.14 MB

     Check: negative core charge=   -0.000001

     Initial potential from superposition of free atoms

     starting charge      17.9994, renormalised to      18.0000

     negative rho (up, down):  7.156E-05 0.000E+00
     Starting wfcs are   16 randomized atomic wfcs
     Checking if some PAW data can be deallocated... 

     total cpu time spent up to now is        2.6 secs

     Self-consistent Calculation

     iteration #  1     ecut=    60.00 Ry     beta= 0.70
     Davidson diagonalization with overlap
     ethr =  1.00E-02,  avg # of iterations =  2.0

     Threshold (ethr) on eigenvalues was too large:
     Diagonalizing with lowered threshold

     Davidson diagonalization with overlap
     ethr =  8.53E-04,  avg # of iterations =  1.8

     negative rho (up, down):  7.333E-05 0.000E+00

     total cpu time spent up to now is        4.8 secs

     total energy              =    -155.53316463 Ry
     estimated scf accuracy    <       0.16918961 Ry

     iteration #  2     ecut=    60.00 Ry     beta= 0.70
     Davidson diagonalization with overlap
     ethr =  9.40E-04,  avg # of iterations =  3.0

     negative rho (up, down):  6.472E-05 0.000E+00

     total cpu time spent up to now is        6.4 secs

     total energy              =    -155.54626432 Ry
     estimated scf accuracy    <       0.11961340 Ry

     iteration #  3     ecut=    60.00 Ry     beta= 0.70
     Davidson diagonalization with overlap
     ethr =  6.65E-04,  avg # of iterations =  2.1

     negative rho (up, down):  6.829E-05 0.000E+00

     total cpu time spent up to now is        7.7 secs

     total energy              =    -155.57733502 Ry
     estimated scf accuracy    <       0.00595884 Ry

     iteration #  4     ecut=    60.00 Ry     beta= 0.70
     Davidson diagonalization with overlap
     ethr =  3.31E-05,  avg # of iterations =  2.7

     negative rho (up, down):  7.580E-05 0.000E+00

     total cpu time spent up to now is        9.0 secs

     total energy              =    -155.57806071 Ry
     estimated scf accuracy    <       0.00162813 Ry

     iteration #  5     ecut=    60.00 Ry     beta= 0.70
     Davidson diagonalization with overlap
     ethr =  9.05E-06,  avg # of iterations =  2.0

     negative rho (up, down):  8.256E-05 0.000E+00

     total cpu time spent up to now is       10.2 secs

     total energy              =    -155.57816709 Ry
     estimated scf accuracy    <       0.00017357 Ry

     iteration #  6     ecut=    60.00 Ry     beta= 0.70
     Davidson diagonalization with overlap
     ethr =  9.64E-07,  avg # of iterations =  3.7

     negative rho (up, down):  8.273E-05 0.000E+00

     total cpu time spent up to now is       11.9 secs

     total energy              =    -155.57826998 Ry
     estimated scf accuracy    <       0.00010756 Ry

     iteration #  7     ecut=    60.00 Ry     beta= 0.70
     Davidson diagonalization with overlap
     ethr =  5.98E-07,  avg # of iterations =  1.5

     negative rho (up, down):  8.282E-05 0.000E+00

     total cpu time spent up to now is       13.0 secs

     total energy              =    -155.57826614 Ry
     estimated scf accuracy    <       0.00002833 Ry

     iteration #  8     ecut=    60.00 Ry     beta= 0.70
     Davidson diagonalization with overlap
     ethr =  1.57E-07,  avg # of iterations =  3.2

     negative rho (up, down):  8.320E-05 0.000E+00

     total cpu time spent up to now is       14.4 secs

     End of self-consistent calculation

          k = 0.0000 0.0000 0.0000 (  7035 PWs)   bands (ev):

   -16.3006 -15.7405  -7.3619  -3.9564  -2.7745  -2.7745  -2.2818  -2.2818
    -0.0646

          k = 0.0000 0.1283 0.0000 (  7093 PWs)   bands (ev):

   -16.1278 -15.5728  -7.2121  -3.8683  -3.8601  -3.3269  -3.1088  -2.5878
    -0.0839

          k = 0.0000 0.2566 0.0000 (  7063 PWs)   bands (ev):

   -15.6287 -15.0910  -6.9823  -5.6276  -5.4007  -3.7746  -3.4146  -3.2116
    -0.4343

          k = 0.0000 0.3849 0.0000 (  7067 PWs)   bands (ev):

   -14.8877 -14.3867  -8.1888  -7.3020  -5.5759  -4.3576  -3.7677  -2.9140
    -1.2778

          k = 0.0000 0.5132 0.0000 (  7017 PWs)   bands (ev):

   -14.1919 -13.7468  -9.4645  -8.5789  -4.7827  -4.6784  -4.0763  -2.5146
    -2.2466

          k = 0.1111 0.1925 0.0000 (  7085 PWs)   bands (ev):

   -15.7912 -15.2473  -6.9862  -5.1084  -4.7535  -3.8231  -3.5280  -3.2329
    -0.2626

          k = 0.1111 0.3208 0.0000 (  7074 PWs)   bands (ev):

   -15.1638 -14.6468  -7.4689  -6.4794  -5.7385  -4.6985  -4.0736  -3.0815
    -0.8470

          k = 0.1111 0.4491 0.0000 (  7038 PWs)   bands (ev):

   -14.4033 -13.9363  -8.8864  -8.0098  -5.3887  -4.9051  -4.6263  -2.6068
    -1.8087

          k = 0.1111-0.5774 0.0000 (  7006 PWs)   bands (ev):

   -13.9872 -13.5618  -9.5762  -8.6769  -5.5337  -4.8152  -4.3681  -2.4744
    -2.3874

          k = 0.2222 0.3849 0.0000 (  7023 PWs)   bands (ev):

   -14.4906 -14.0149  -8.4261  -7.5378  -5.9548  -5.2459  -5.0646  -2.6457
    -1.5608

          k = 0.2222-0.6415 0.0000 (  7009 PWs)   bands (ev):

   -13.8892 -13.4692  -9.2432  -8.3351  -6.6518  -5.9140  -4.2054  -2.4298
    -2.3133

          k = 0.3333-0.5774 0.0000 (  7032 PWs)   bands (ev):

   -13.6536 -13.2600  -9.2904  -8.3523  -7.2833  -6.5440  -3.6227  -2.9280
    -2.1917

     highest occupied level (ev):    -0.0646

!    total energy              =    -155.57827452 Ry
     total all-electron energy =     -1696.259210 Ry
     estimated scf accuracy    <       0.00000039 Ry

     The total energy is the sum of the following terms:
     one-electron contribution =    -231.92793646 Ry
     hartree contribution      =     120.96187743 Ry
     xc contribution           =     -15.81671779 Ry
     ewald contribution        =      73.89571359 Ry
     one-center paw contrib.   =    -102.69121129 Ry

     convergence has been achieved in   8 iterations

     negative rho (up, down):  8.320E-05 0.000E+00

     Forces acting on atoms (cartesian axes, Ry/au):

     atom    1 type  2   force =     0.00000000    0.00000000    0.02267583
     atom    2 type  1   force =     0.00000000    0.00000000   -0.09738205
     atom    3 type  1   force =     0.00000000    0.00000000    0.09717140
     atom    4 type  2   force =     0.00000000    0.00000000   -0.02246518
     The non-local contrib.  to forces
     atom    1 type  2   force =     0.00000000    0.00000000   -0.34844989
     atom    2 type  1   force =     0.00000000    0.00000000    0.25398513
     atom    3 type  1   force =     0.00000000    0.00000000   -0.25437965
     atom    4 type  2   force =     0.00000000    0.00000000    0.34841429
     The ionic contribution  to forces
     atom    1 type  2   force =     0.00000007    0.00000004   16.11859831
     atom    2 type  1   force =    -0.00000007   -0.00000004    3.59412212
     atom    3 type  1   force =    -0.00000007   -0.00000004   -3.59412212
     atom    4 type  2   force =     0.00000007    0.00000004  -16.11859831
     The local contribution  to forces
     atom    1 type  2   force =     0.00000013    0.00000007  -15.75349931
     atom    2 type  1   force =    -0.00000003   -0.00000002   -3.93791626
     atom    3 type  1   force =    -0.00000003   -0.00000002    3.93794540
     atom    4 type  2   force =     0.00000013    0.00000007   15.75294838
     The core correction contribution to forces
     atom    1 type  2   force =    -0.00000000   -0.00000000    0.00634461
     atom    2 type  1   force =    -0.00000000   -0.00000000   -0.00774290
     atom    3 type  1   force =    -0.00000000   -0.00000000    0.00729541
     atom    4 type  2   force =    -0.00000000   -0.00000000   -0.00634741
     The Hubbard contrib.    to forces
     atom    1 type  2   force =     0.00000000    0.00000000    0.00000000
     atom    2 type  1   force =     0.00000000    0.00000000    0.00000000
     atom    3 type  1   force =     0.00000000    0.00000000    0.00000000
     atom    4 type  2   force =     0.00000000    0.00000000    0.00000000
     The SCF correction term to forces
     atom    1 type  2   force =    -0.00000000   -0.00000000   -0.00048443
     atom    2 type  1   force =     0.00000000    0.00000000    0.00000332
     atom    3 type  1   force =     0.00000000    0.00000000    0.00026582
     atom    4 type  2   force =    -0.00000000   -0.00000000    0.00095133

     Total force =     0.141225     Total SCF correction =     0.001100


     Computing stress (Cartesian axis) and pressure


     negative rho (up, down):  8.320E-05 0.000E+00
          total   stress  (Ry/bohr**3)                   (kbar)     P=      -52.72
  -0.00041706   0.00000000   0.00000000          -61.35        0.00        0.00
   0.00000000  -0.00041706   0.00000000            0.00      -61.35        0.00
   0.00000000   0.00000000  -0.00024106            0.00        0.00      -35.46


     BFGS Geometry Optimization
     Energy error            =      0.0E+00 Ry
     Gradient error          =      9.7E-02 Ry/Bohr
     Cell gradient error     =      6.1E+01 kbar

     number of scf cycles    =   1
     number of bfgs steps    =   0

     enthalpy           new  =    -155.5782745160 Ry

     new trust radius        =       0.0973820530 bohr
     new conv_thr            =       0.0000010000 Ry

     new unit-cell volume =    879.05217 a.u.^3 (   130.26209 Ang^3 )
     density =      1.09314 g/cm^3

CELL_PARAMETERS (angstrom)
   3.166635529   0.000000000   0.000000000
   1.583317764   2.742386810   0.000000000
   0.000000000   0.000000000  15.000000000

ATOMIC_POSITIONS (crystal)
S             0.3333333300        0.3333333300        0.5507999689
B             0.6666666700        0.6666666700        0.4965645091
B             0.6666666700        0.6666666700        0.3734280594
S             0.3333333300        0.3333333300        0.3192074626



     Writing config-only to output data dir ./tmp/BS.save/
     NEW-OLD atomic charge density approx. for the potential

     negative rho (up, down):  8.504E-05 0.000E+00
     extrapolated charge   17.61871, renormalised to   18.00000

     total cpu time spent up to now is       20.6 secs

     Self-consistent Calculation

     iteration #  1     ecut=    60.00 Ry     beta= 0.70
     Davidson diagonalization with overlap
     ethr =  1.00E-06,  avg # of iterations = 11.4

     negative rho (up, down):  9.062E-05 0.000E+00

     total cpu time spent up to now is       23.4 secs

     total energy              =    -155.44567011 Ry
     estimated scf accuracy    <       0.13300280 Ry

     iteration #  2     ecut=    60.00 Ry     beta= 0.70
     Davidson diagonalization with overlap
     ethr =  7.39E-04,  avg # of iterations =  4.8

     negative rho (up, down):  3.433E-06 0.000E+00

     total cpu time spent up to now is       25.0 secs

     total energy              =    -155.52240801 Ry
     estimated scf accuracy    <       1.00595961 Ry

     iteration #  3     ecut=    60.00 Ry     beta= 0.70
     Davidson diagonalization with overlap
     ethr =  7.39E-04,  avg # of iterations =  3.1

     negative rho (up, down):  6.403E-05 0.000E+00

     total cpu time spent up to now is       26.1 secs

     total energy              =    -155.59079164 Ry
     estimated scf accuracy    <       0.09358235 Ry

     iteration #  4     ecut=    60.00 Ry     beta= 0.70
     Davidson diagonalization with overlap
     ethr =  5.20E-04,  avg # of iterations =  2.0

     negative rho (up, down):  4.742E-05 0.000E+00

     total cpu time spent up to now is       27.2 secs

     total energy              =    -155.60121649 Ry
     estimated scf accuracy    <       0.01244505 Ry

     iteration #  5     ecut=    60.00 Ry     beta= 0.70
     Davidson diagonalization with overlap
     ethr =  6.91E-05,  avg # of iterations =  2.3

     negative rho (up, down):  8.709E-05 0.000E+00

     total cpu time spent up to now is       28.1 secs

     total energy              =    -155.60066752 Ry
     estimated scf accuracy    <       0.00746006 Ry

     iteration #  6     ecut=    60.00 Ry     beta= 0.70
     Davidson diagonalization with overlap
     ethr =  4.14E-05,  avg # of iterations =  2.0

     negative rho (up, down):  1.213E-04 0.000E+00

     total cpu time spent up to now is       29.1 secs

     total energy              =    -155.60044316 Ry
     estimated scf accuracy    <       0.00226066 Ry

     iteration #  7     ecut=    60.00 Ry     beta= 0.70
     Davidson diagonalization with overlap
     ethr =  1.26E-05,  avg # of iterations =  2.8

     negative rho (up, down):  9.117E-05 0.000E+00

     total cpu time spent up to now is       30.2 secs

     total energy              =    -155.60102085 Ry
     estimated scf accuracy    <       0.00001134 Ry

     iteration #  8     ecut=    60.00 Ry     beta= 0.70
     Davidson diagonalization with overlap
     ethr =  6.30E-08,  avg # of iterations =  6.2

     negative rho (up, down):  8.481E-05 0.000E+00

     total cpu time spent up to now is       31.8 secs

     total energy              =    -155.60105340 Ry
     estimated scf accuracy    <       0.00001076 Ry

     iteration #  9     ecut=    60.00 Ry     beta= 0.70
     Davidson diagonalization with overlap
     ethr =  5.98E-08,  avg # of iterations =  2.0

     negative rho (up, down):  8.342E-05 0.000E+00

     total cpu time spent up to now is       32.7 secs

     total energy              =    -155.60105344 Ry
     estimated scf accuracy    <       0.00000243 Ry

     iteration # 10     ecut=    60.00 Ry     beta= 0.70
     Davidson diagonalization with overlap
     ethr =  1.35E-08,  avg # of iterations =  2.2

     negative rho (up, down):  7.882E-05 0.000E+00

     total cpu time spent up to now is       33.7 secs

     End of self-consistent calculation

          k = 0.0000 0.0000 0.0000 (  7035 PWs)   bands (ev):

   -16.2122 -15.6174  -7.5863  -3.9594  -2.3802  -2.3802  -1.8162  -1.8162
    -0.3781

          k = 0.0000 0.1297 0.0000 (  7093 PWs)   bands (ev):

   -16.0329 -15.4432  -7.4325  -3.8489  -3.5084  -2.9113  -2.7312  -2.1338
    -0.3889

          k = 0.0000 0.2593 0.0000 (  7063 PWs)   bands (ev):

   -15.5139 -14.9417  -7.1280  -5.3953  -5.0640  -3.4238  -3.3816  -2.7782
    -0.6918

          k = 0.0000 0.3890 0.0000 (  7067 PWs)   bands (ev):

   -14.7386 -14.2049  -8.0486  -7.0263  -5.6840  -4.0261  -3.3503  -2.8719
    -1.4887

          k = 0.0000 0.5186 0.0000 (  7017 PWs)   bands (ev):

   -14.0000 -13.5283  -9.3421  -8.3581  -4.9138  -4.3566  -3.6673  -2.4577
    -2.4519

          k = 0.1123 0.1945 0.0000 (  7085 PWs)   bands (ev):

   -15.6832 -15.1046  -7.1817  -4.8007  -4.4087  -3.4876  -3.4765  -2.8143
    -0.5381

          k = 0.1123 0.3241 0.0000 (  7074 PWs)   bands (ev):

   -15.0285 -14.4778  -7.3892  -6.1704  -5.7504  -4.4031  -3.6886  -3.0405
    -1.0697

          k = 0.1123 0.4538 0.0000 (  7038 PWs)   bands (ev):

   -14.2271 -13.7305  -8.7441  -7.7605  -5.3108  -4.8276  -4.2601  -2.5511
    -2.0042

          k = 0.1123-0.5834 0.0000 (  7006 PWs)   bands (ev):

   -13.7812 -13.3319  -9.4589  -8.4603  -5.3185  -4.4551  -4.4220  -2.6815
    -2.3226

          k = 0.2246 0.3890 0.0000 (  7023 PWs)   bands (ev):

   -14.3207 -13.8143  -8.2735  -7.2623  -5.7239  -5.1642  -4.9193  -2.5917
    -1.7517

          k = 0.2246-0.6483 0.0000 (  7009 PWs)   bands (ev):

   -13.6791 -13.2354  -9.1088  -8.0962  -6.4526  -5.6172  -4.2933  -2.6249
    -2.2455

          k = 0.3368-0.5834 0.0000 (  7032 PWs)   bands (ev):

   -13.4256 -13.0123  -9.1567  -8.1093  -7.1101  -6.2832  -3.6216  -3.2057
    -2.1185

     highest occupied level (ev):    -0.3781

!    total energy              =    -155.60105389 Ry
     total all-electron energy =     -1696.281990 Ry
     estimated scf accuracy    <       0.00000019 Ry

     The total energy is the sum of the following terms:
     one-electron contribution =    -236.73396997 Ry
     hartree contribution      =     123.47995896 Ry
     xc contribution           =     -15.85555304 Ry
     ewald contribution        =      76.20150732 Ry
     one-center paw contrib.   =    -102.69299716 Ry

     convergence has been achieved in  10 iterations

     negative rho (up, down):  7.882E-05 0.000E+00

     Forces acting on atoms (cartesian axes, Ry/au):

     atom    1 type  2   force =     0.00000000    0.00000000   -0.00001044
     atom    2 type  1   force =     0.00000000    0.00000000   -0.05421135
     atom    3 type  1   force =     0.00000000    0.00000000    0.05464212
     atom    4 type  2   force =     0.00000000    0.00000000   -0.00042034
     The non-local contrib.  to forces
     atom    1 type  2   force =     0.00000000    0.00000000   -0.35146159
     atom    2 type  1   force =     0.00000000    0.00000000    0.29172358
     atom    3 type  1   force =    -0.00000000   -0.00000000   -0.29140720
     atom    4 type  2   force =     0.00000000    0.00000000    0.35143324
     The ionic contribution  to forces
     atom    1 type  2   force =     0.00000007    0.00000004   16.68968085
     atom    2 type  1   force =    -0.00000007   -0.00000004    3.57470179
     atom    3 type  1   force =    -0.00000007   -0.00000004   -3.57520226
     atom    4 type  2   force =     0.00000007    0.00000004  -16.68918039
     The local contribution  to forces
     atom    1 type  2   force =     0.00000012    0.00000007  -16.34475556
     atom    2 type  1   force =    -0.00000004   -0.00000002   -3.91166981
     atom    3 type  1   force =    -0.00000004   -0.00000002    3.91206090
     atom    4 type  2   force =     0.00000012    0.00000007   16.34424551
     The core correction contribution to forces
     atom    1 type  2   force =    -0.00000000   -0.00000000    0.00609969
     atom    2 type  1   force =    -0.00000000   -0.00000000   -0.00904503
     atom    3 type  1   force =    -0.00000000   -0.00000000    0.00961745
     atom    4 type  2   force =    -0.00000000   -0.00000000   -0.00609939
     The Hubbard contrib.    to forces
     atom    1 type  2   force =     0.00000000    0.00000000    0.00000000
     atom    2 type  1   force =     0.00000000    0.00000000    0.00000000
     atom    3 type  1   force =     0.00000000    0.00000000    0.00000000
     atom    4 type  2   force =     0.00000000    0.00000000    0.00000000
     The SCF correction term to forces
     atom    1 type  2   force =    -0.00000000   -0.00000000    0.00056742
     atom    2 type  1   force =    -0.00000000   -0.00000000    0.00021936
     atom    3 type  1   force =    -0.00000000   -0.00000000   -0.00028553
     atom    4 type  2   force =    -0.00000000   -0.00000000   -0.00067807

     Total force =     0.076973     Total SCF correction =     0.000955


     Computing stress (Cartesian axis) and pressure


     negative rho (up, down):  7.882E-05 0.000E+00
          total   stress  (Ry/bohr**3)                   (kbar)     P=      -45.91
  -0.00036109  -0.00000000   0.00000000          -53.12       -0.00        0.00
   0.00000000  -0.00036109   0.00000000            0.00      -53.12        0.00
   0.00000000   0.00000000  -0.00021411            0.00        0.00      -31.50

     Energy error            =      2.3E-02 Ry
     Gradient error          =      5.5E-02 Ry/Bohr
     Cell gradient error     =      5.3E+01 kbar

     number of scf cycles    =   2
     number of bfgs steps    =   1

     enthalpy           old  =    -155.5782745160 Ry
     enthalpy           new  =    -155.6010538870 Ry

     CASE: enthalpy          _new < enthalpy          _old

     new trust radius        =       0.1071202583 bohr
     new conv_thr            =       0.0000005464 Ry

     new unit-cell volume =    849.59114 a.u.^3 (   125.89642 Ang^3 )
     density =      1.13105 g/cm^3

CELL_PARAMETERS (angstrom)
   3.113119144   0.000000000   0.000000000
   1.556559572   2.696040262   0.000000000
   0.000000000   0.000000000  15.000000000

ATOMIC_POSITIONS (crystal)
S             0.3333333300        0.3333333300        0.5509148922
B             0.6666666700        0.6666666700        0.4928102845
B             0.6666666700        0.6666666700        0.3772070993
S             0.3333333300        0.3333333300        0.3190677239



     Writing config-only to output data dir ./tmp/BS.save/
     NEW-OLD atomic charge density approx. for the potential

     negative rho (up, down):  8.242E-05 0.000E+00
     extrapolated charge   17.37584, renormalised to   18.00000

     total cpu time spent up to now is       39.7 secs

     Self-consistent Calculation

     iteration #  1     ecut=    60.00 Ry     beta= 0.70
     Davidson diagonalization with overlap
     ethr =  1.00E-06,  avg # of iterations = 12.9

     negative rho (up, down):  9.164E-05 0.000E+00

     total cpu time spent up to now is       43.7 secs

     total energy              =    -155.18178739 Ry
     estimated scf accuracy    <       0.37401554 Ry

     iteration #  2     ecut=    60.00 Ry     beta= 0.70
     Davidson diagonalization with overlap
     ethr =  2.08E-03,  avg # of iterations =  5.8

     total cpu time spent up to now is       45.6 secs

     total energy              =    -155.23960066 Ry
     estimated scf accuracy    <       4.13403992 Ry

     iteration #  3     ecut=    60.00 Ry     beta= 0.70
     Davidson diagonalization with overlap
     ethr =  2.08E-03,  avg # of iterations =  3.7

     total cpu time spent up to now is       47.2 secs

     total energy              =    -155.61688756 Ry
     estimated scf accuracy    <       0.26854224 Ry

     iteration #  4     ecut=    60.00 Ry     beta= 0.70
     Davidson diagonalization with overlap
     ethr =  1.49E-03,  avg # of iterations =  1.2

     total cpu time spent up to now is       48.3 secs

     total energy              =    -155.61003761 Ry
     estimated scf accuracy    <       0.13137887 Ry

     iteration #  5     ecut=    60.00 Ry     beta= 0.70
     Davidson diagonalization with overlap
     ethr =  7.30E-04,  avg # of iterations =  1.9

     negative rho (up, down):  3.974E-03 0.000E+00

     total cpu time spent up to now is       49.5 secs

     total energy              =    -155.60455546 Ry
     estimated scf accuracy    <       0.05397659 Ry

     iteration #  6     ecut=    60.00 Ry     beta= 0.70
     Davidson diagonalization with overlap
     ethr =  3.00E-04,  avg # of iterations =  2.7

     negative rho (up, down):  3.351E-03 0.000E+00

     total cpu time spent up to now is       50.8 secs

     total energy              =    -155.61366397 Ry
     estimated scf accuracy    <       0.00304873 Ry

     iteration #  7     ecut=    60.00 Ry     beta= 0.70
     Davidson diagonalization with overlap
     ethr =  1.69E-05,  avg # of iterations =  4.1

     negative rho (up, down):  1.849E-03 0.000E+00

     total cpu time spent up to now is       52.5 secs

     total energy              =    -155.61527351 Ry
     estimated scf accuracy    <       0.00085712 Ry

     iteration #  8     ecut=    60.00 Ry     beta= 0.70
     Davidson diagonalization with overlap
     ethr =  4.76E-06,  avg # of iterations =  1.3

     negative rho (up, down):  3.671E-04 0.000E+00

     total cpu time spent up to now is       54.2 secs

     total energy              =    -155.61507966 Ry
     estimated scf accuracy    <       0.00052119 Ry

     iteration #  9     ecut=    60.00 Ry     beta= 0.70
     Davidson diagonalization with overlap
     ethr =  2.90E-06,  avg # of iterations =  2.0

     negative rho (up, down):  5.613E-04 0.000E+00

     total cpu time spent up to now is       55.8 secs

     total energy              =    -155.61515986 Ry
     estimated scf accuracy    <       0.00002771 Ry

     iteration # 10     ecut=    60.00 Ry     beta= 0.70
     Davidson diagonalization with overlap
     ethr =  1.54E-07,  avg # of iterations =  2.3

     negative rho (up, down):  2.817E-04 0.000E+00

     total cpu time spent up to now is       57.1 secs

     total energy              =    -155.61515138 Ry
     estimated scf accuracy    <       0.00003019 Ry

     iteration # 11     ecut=    60.00 Ry     beta= 0.70
     Davidson diagonalization with overlap
     ethr =  1.54E-07,  avg # of iterations =  2.2

     negative rho (up, down):  8.797E-05 0.000E+00

     total cpu time spent up to now is       58.6 secs

     total energy              =    -155.61515017 Ry
     estimated scf accuracy    <       0.00000624 Ry

     iteration # 12     ecut=    60.00 Ry     beta= 0.70
     Davidson diagonalization with overlap
     ethr =  3.47E-08,  avg # of iterations =  3.8

     negative rho (up, down):  8.556E-05 0.000E+00

     total cpu time spent up to now is       60.4 secs

     total energy              =    -155.61515341 Ry
     estimated scf accuracy    <       0.00000350 Ry

     iteration # 13     ecut=    60.00 Ry     beta= 0.70
     Davidson diagonalization with overlap
     ethr =  1.94E-08,  avg # of iterations =  1.0

     negative rho (up, down):  8.598E-05 0.000E+00

     total cpu time spent up to now is       61.6 secs

     total energy              =    -155.61515315 Ry
     estimated scf accuracy    <       0.00000204 Ry

     iteration # 14     ecut=    60.00 Ry     beta= 0.70
     Davidson diagonalization with overlap
     ethr =  1.13E-08,  avg # of iterations =  1.3

     negative rho (up, down):  8.490E-05 0.000E+00

     total cpu time spent up to now is       62.9 secs

     total energy              =    -155.61515287 Ry
     estimated scf accuracy    <       0.00000075 Ry

     iteration # 15     ecut=    60.00 Ry     beta= 0.70
     Davidson diagonalization with overlap
     ethr =  4.16E-09,  avg # of iterations =  3.2

     negative rho (up, down):  8.496E-05 0.000E+00

     total cpu time spent up to now is       64.2 secs

     End of self-consistent calculation

          k = 0.0000 0.0000 0.0000 (  7035 PWs)   bands (ev):

   -16.1806 -15.5292  -7.8483  -3.9485  -1.8979  -1.8979  -1.2293  -1.2293
    -0.6296

          k = 0.0000 0.1319 0.0000 (  7093 PWs)   bands (ev):

   -15.9909 -15.3442  -7.6846  -3.8211  -3.0785  -2.3884  -2.2768  -1.5682
    -0.6239

          k = 0.0000 0.2638 0.0000 (  7063 PWs)   bands (ev):

   -15.4399 -14.8098  -7.3050  -5.1170  -4.6611  -3.3145  -3.0138  -2.2499
    -0.8772

          k = 0.0000 0.3956 0.0000 (  7067 PWs)   bands (ev):

   -14.6086 -14.0174  -7.9129  -6.7219  -5.7982  -3.6484  -2.8511  -2.7806
    -1.6343

          k = 0.0000 0.5275 0.0000 (  7017 PWs)   bands (ev):

   -13.7979 -13.2747  -9.2462  -8.1488  -5.0512  -3.9951  -3.1830  -2.6096
    -2.3310

          k = 0.1142 0.1978 0.0000 (  7085 PWs)   bands (ev):

   -15.6200 -14.9838  -7.3998  -4.4423  -4.0152  -3.3645  -3.1003  -2.3038
    -0.7385

          k = 0.1142 0.3297 0.0000 (  7074 PWs)   bands (ev):

   -14.9213 -14.3125  -7.3430  -5.8091  -5.7222  -4.0773  -3.2436  -2.9522
    -1.2183

          k = 0.1142 0.4616 0.0000 (  7038 PWs)   bands (ev):

   -14.0521 -13.5004  -8.6091  -7.5012  -5.3725  -4.6015  -3.8400  -2.4320
    -2.1385

          k = 0.1142-0.5935 0.0000 (  7006 PWs)   bands (ev):

   -13.5546 -13.0572  -9.3725  -8.2599  -5.1552  -4.4089  -4.0445  -2.8412
    -2.1825

          k = 0.2284 0.3956 0.0000 (  7023 PWs)   bands (ev):

   -14.1564 -13.5937  -8.1141  -6.9560  -5.5007  -5.2665  -4.5623  -2.4785
    -1.8742

          k = 0.2284-0.6594 0.0000 (  7009 PWs)   bands (ev):

   -13.4461 -12.9539  -8.9879  -7.8566  -6.2744  -5.3061  -4.3838  -2.7595
    -2.1013

          k = 0.3426-0.5935 0.0000 (  7032 PWs)   bands (ev):

   -13.1610 -12.7047  -9.0347  -7.8633  -6.9770  -6.0318  -3.5876  -3.4573
    -1.9627

     highest occupied level (ev):    -0.6239

!    total energy              =    -155.61515307 Ry
     total all-electron energy =     -1696.296089 Ry
     estimated scf accuracy    <       0.00000014 Ry

     The total energy is the sum of the following terms:
     one-electron contribution =    -246.07747137 Ry
     hartree contribution      =     128.31265459 Ry
     xc contribution           =     -15.93875970 Ry
     ewald contribution        =      80.78504514 Ry
     one-center paw contrib.   =    -102.69662173 Ry

     convergence has been achieved in  15 iterations

     negative rho (up, down):  8.496E-05 0.000E+00

     Forces acting on atoms (cartesian axes, Ry/au):

     atom    1 type  2   force =     0.00000000    0.00000000   -0.01853249
     atom    2 type  1   force =     0.00000000    0.00000000    0.00912443
     atom    3 type  1   force =     0.00000000    0.00000000   -0.00976473
     atom    4 type  2   force =     0.00000000    0.00000000    0.01917278
     The non-local contrib.  to forces
     atom    1 type  2   force =     0.00000000    0.00000000   -0.34645309
     atom    2 type  1   force =     0.00000000    0.00000000    0.34816248
     atom    3 type  1   force =     0.00000000    0.00000000   -0.34851399
     atom    4 type  2   force =     0.00000000    0.00000000    0.34649105
     The ionic contribution  to forces
     atom    1 type  2   force =     0.00000006    0.00000004   17.54542081
     atom    2 type  1   force =    -0.00000006   -0.00000004    3.65170097
     atom    3 type  1   force =    -0.00000006   -0.00000004   -3.65066737
     atom    4 type  2   force =     0.00000006    0.00000004  -17.54645442
     The local contribution  to forces
     atom    1 type  2   force =     0.00000012    0.00000007  -17.22390572
     atom    2 type  1   force =    -0.00000004   -0.00000002   -3.97885463
     atom    3 type  1   force =    -0.00000004   -0.00000002    3.97791631
     atom    4 type  2   force =     0.00000012    0.00000007   17.22520926
     The core correction contribution to forces
     atom    1 type  2   force =    -0.00000000   -0.00000000    0.00557122
     atom    2 type  1   force =    -0.00000000   -0.00000000   -0.01233900
     atom    3 type  1   force =    -0.00000000   -0.00000000    0.01160066
     atom    4 type  2   force =    -0.00000000   -0.00000000   -0.00557212
     The Hubbard contrib.    to forces
     atom    1 type  2   force =     0.00000000    0.00000000    0.00000000
     atom    2 type  1   force =     0.00000000    0.00000000    0.00000000
     atom    3 type  1   force =     0.00000000    0.00000000    0.00000000
     atom    4 type  2   force =     0.00000000    0.00000000    0.00000000
     The SCF correction term to forces
     atom    1 type  2   force =     0.00000000    0.00000000    0.00064974
     atom    2 type  1   force =     0.00000000    0.00000000    0.00027005
     atom    3 type  1   force =     0.00000000    0.00000000   -0.00028489
     atom    4 type  2   force =     0.00000000    0.00000000   -0.00068554

     Total force =     0.029827     Total SCF correction =     0.001023


     Computing stress (Cartesian axis) and pressure


     negative rho (up, down):  8.496E-05 0.000E+00
          total   stress  (Ry/bohr**3)                   (kbar)     P=      -28.62
  -0.00023644   0.00000000   0.00000000          -34.78        0.00        0.00
   0.00000000  -0.00023644   0.00000000            0.00      -34.78        0.00
   0.00000000   0.00000000  -0.00011076            0.00        0.00      -16.29

     Energy error            =      1.4E-02 Ry
     Gradient error          =      1.9E-02 Ry/Bohr
     Cell gradient error     =      3.5E+01 kbar

     number of scf cycles    =   3
     number of bfgs steps    =   2

     enthalpy           old  =    -155.6010538870 Ry
     enthalpy           new  =    -155.6151530749 Ry

     CASE: enthalpy          _new < enthalpy          _old

     new trust radius        =       0.0699078525 bohr
     new conv_thr            =       0.0000001917 Ry

     new unit-cell volume =    829.33676 a.u.^3 (   122.89503 Ang^3 )
     density =      1.15867 g/cm^3

CELL_PARAMETERS (angstrom)
   3.075786675   0.000000000   0.000000000
   1.537893337   2.663709395   0.000000000
   0.000000000   0.000000000  15.000000000

ATOMIC_POSITIONS (crystal)
S             0.3333333300        0.3333333300        0.5502599638
B             0.6666666700        0.6666666700        0.4920210247
B             0.6666666700        0.6666666700        0.3779695701
S             0.3333333300        0.3333333300        0.3197494415



     Writing config-only to output data dir ./tmp/BS.save/
     NEW-OLD atomic charge density approx. for the potential

     negative rho (up, down):  8.595E-05 0.000E+00
     extrapolated charge   17.56041, renormalised to   18.00000

     total cpu time spent up to now is       71.0 secs

     Self-consistent Calculation

     iteration #  1     ecut=    60.00 Ry     beta= 0.70
     Davidson diagonalization with overlap
     ethr =  1.00E-06,  avg # of iterations = 12.8

     negative rho (up, down):  1.179E-04 0.000E+00

     total cpu time spent up to now is       74.5 secs

     total energy              =    -155.38266820 Ry
     estimated scf accuracy    <       0.20232427 Ry

     iteration #  2     ecut=    60.00 Ry     beta= 0.70
     Davidson diagonalization with overlap
     ethr =  1.12E-03,  avg # of iterations =  5.0

     total cpu time spent up to now is       76.6 secs

     total energy              =    -155.46785125 Ry
     estimated scf accuracy    <       1.87019860 Ry

     iteration #  3     ecut=    60.00 Ry     beta= 0.70
     Davidson diagonalization with overlap
     ethr =  1.12E-03,  avg # of iterations =  3.2

     negative rho (up, down):  6.170E-06 0.000E+00

     total cpu time spent up to now is       78.2 secs

     total energy              =    -155.61515709 Ry
     estimated scf accuracy    <       0.15652297 Ry

     iteration #  4     ecut=    60.00 Ry     beta= 0.70
     Davidson diagonalization with overlap
     ethr =  8.70E-04,  avg # of iterations =  1.3

     negative rho (up, down):  5.444E-05 0.000E+00

     total cpu time spent up to now is       79.4 secs

     total energy              =    -155.61563747 Ry
     estimated scf accuracy    <       0.05779542 Ry

     iteration #  5     ecut=    60.00 Ry     beta= 0.70
     Davidson diagonalization with overlap
     ethr =  3.21E-04,  avg # of iterations =  2.0

     negative rho (up, down):  7.876E-05 0.000E+00

     total cpu time spent up to now is       80.7 secs

     total energy              =    -155.61859185 Ry
     estimated scf accuracy    <       0.02235852 Ry

     iteration #  6     ecut=    60.00 Ry     beta= 0.70
     Davidson diagonalization with overlap
     ethr =  1.24E-04,  avg # of iterations =  1.5

     negative rho (up, down):  7.002E-05 0.000E+00

     total cpu time spent up to now is       81.9 secs

     total energy              =    -155.61958028 Ry
     estimated scf accuracy    <       0.01265508 Ry

     iteration #  7     ecut=    60.00 Ry     beta= 0.70
     Davidson diagonalization with overlap
     ethr =  7.03E-05,  avg # of iterations =  1.1

     negative rho (up, down):  3.594E-05 0.000E+00

     total cpu time spent up to now is       83.1 secs

     total energy              =    -155.62049962 Ry
     estimated scf accuracy    <       0.00958480 Ry

     iteration #  8     ecut=    60.00 Ry     beta= 0.70
     Davidson diagonalization with overlap
     ethr =  5.32E-05,  avg # of iterations =  1.0

     negative rho (up, down):  1.020E-04 0.000E+00

     total cpu time spent up to now is       84.1 secs

     total energy              =    -155.61840641 Ry
     estimated scf accuracy    <       0.00968648 Ry

     iteration #  9     ecut=    60.00 Ry     beta= 0.70
     Davidson diagonalization with overlap
     ethr =  5.32E-05,  avg # of iterations =  2.0

     negative rho (up, down):  1.215E-04 0.000E+00

     total cpu time spent up to now is       85.0 secs

     total energy              =    -155.61876704 Ry
     estimated scf accuracy    <       0.00246633 Ry

     iteration # 10     ecut=    60.00 Ry     beta= 0.70
     Davidson diagonalization with overlap
     ethr =  1.37E-05,  avg # of iterations =  1.6

     negative rho (up, down):  1.350E-04 0.000E+00

     total cpu time spent up to now is       86.0 secs

     total energy              =    -155.61885992 Ry
     estimated scf accuracy    <       0.00140200 Ry

     iteration # 11     ecut=    60.00 Ry     beta= 0.70
     Davidson diagonalization with overlap
     ethr =  7.79E-06,  avg # of iterations =  1.2

     negative rho (up, down):  1.158E-04 0.000E+00

     total cpu time spent up to now is       87.1 secs

     total energy              =    -155.61891114 Ry
     estimated scf accuracy    <       0.00102072 Ry

     iteration # 12     ecut=    60.00 Ry     beta= 0.70
     Davidson diagonalization with overlap
     ethr =  5.67E-06,  avg # of iterations =  1.0

     negative rho (up, down):  9.724E-05 0.000E+00

     total cpu time spent up to now is       88.0 secs

     total energy              =    -155.61867700 Ry
     estimated scf accuracy    <       0.00094857 Ry

     iteration # 13     ecut=    60.00 Ry     beta= 0.70
     Davidson diagonalization with overlap
     ethr =  5.27E-06,  avg # of iterations =  2.0

     negative rho (up, down):  9.290E-05 0.000E+00

     total cpu time spent up to now is       89.2 secs

     total energy              =    -155.61873002 Ry
     estimated scf accuracy    <       0.00013726 Ry

     iteration # 14     ecut=    60.00 Ry     beta= 0.70
     Davidson diagonalization with overlap
     ethr =  7.63E-07,  avg # of iterations =  2.7

     negative rho (up, down):  9.116E-05 0.000E+00

     total cpu time spent up to now is       90.7 secs

     total energy              =    -155.61876095 Ry
     estimated scf accuracy    <       0.00001883 Ry

     iteration # 15     ecut=    60.00 Ry     beta= 0.70
     Davidson diagonalization with overlap
     ethr =  1.05E-07,  avg # of iterations =  2.4

     negative rho (up, down):  8.599E-05 0.000E+00

     total cpu time spent up to now is       92.0 secs

     total energy              =    -155.61876276 Ry
     estimated scf accuracy    <       0.00001867 Ry

     iteration # 16     ecut=    60.00 Ry     beta= 0.70
     Davidson diagonalization with overlap
     ethr =  1.04E-07,  avg # of iterations =  2.0

     negative rho (up, down):  8.747E-05 0.000E+00

     total cpu time spent up to now is       93.3 secs

     total energy              =    -155.61876336 Ry
     estimated scf accuracy    <       0.00001949 Ry

     iteration # 17     ecut=    60.00 Ry     beta= 0.70
     Davidson diagonalization with overlap
     ethr =  1.04E-07,  avg # of iterations =  1.2

     negative rho (up, down):  8.114E-05 0.000E+00

     total cpu time spent up to now is       94.5 secs

     total energy              =    -155.61876337 Ry
     estimated scf accuracy    <       0.00001869 Ry

     iteration # 18     ecut=    60.00 Ry     beta= 0.70
     Davidson diagonalization with overlap
     ethr =  1.04E-07,  avg # of iterations =  2.0

     negative rho (up, down):  8.614E-05 0.000E+00

     total cpu time spent up to now is       95.9 secs

     total energy              =    -155.61875411 Ry
     estimated scf accuracy    <       0.00002680 Ry

     iteration # 19     ecut=    60.00 Ry     beta= 0.70
     Davidson diagonalization with overlap
     ethr =  1.04E-07,  avg # of iterations =  2.1

     negative rho (up, down):  8.949E-05 0.000E+00

     total cpu time spent up to now is       97.4 secs

     total energy              =    -155.61875873 Ry
     estimated scf accuracy    <       0.00000077 Ry

     iteration # 20     ecut=    60.00 Ry     beta= 0.70
     Davidson diagonalization with overlap
     ethr =  4.26E-09,  avg # of iterations =  5.2

     negative rho (up, down):  8.964E-05 0.000E+00

     total cpu time spent up to now is       99.3 secs

     total energy              =    -155.61876015 Ry
     estimated scf accuracy    <       0.00001668 Ry

     iteration # 21     ecut=    60.00 Ry     beta= 0.70
     Davidson diagonalization with overlap
     ethr =  4.26E-09,  avg # of iterations =  2.2

     negative rho (up, down):  8.744E-05 0.000E+00

     total cpu time spent up to now is      100.4 secs

     total energy              =    -155.61875643 Ry
     estimated scf accuracy    <       0.00000945 Ry

     iteration # 22     ecut=    60.00 Ry     beta= 0.70
     Davidson diagonalization with overlap
     ethr =  4.26E-09,  avg # of iterations =  4.8

     negative rho (up, down):  8.753E-05 0.000E+00

     total cpu time spent up to now is      102.1 secs

     total energy              =    -155.61875854 Ry
     estimated scf accuracy    <       0.00000023 Ry

     iteration # 23     ecut=    60.00 Ry     beta= 0.70
     Davidson diagonalization with overlap
     ethr =  1.29E-09,  avg # of iterations =  2.2

     negative rho (up, down):  8.753E-05 0.000E+00

     total cpu time spent up to now is      103.2 secs

     End of self-consistent calculation

          k = 0.0000 0.0000 0.0000 (  7035 PWs)   bands (ev):

   -16.2676 -15.5907  -7.8924  -3.9276  -1.7017  -1.7017  -0.9990  -0.9990
    -0.5649

          k = 0.0000 0.1335 0.0000 (  7093 PWs)   bands (ev):

   -16.0707 -15.3979  -7.7181  -3.7880  -2.9147  -2.1948  -2.1001  -1.3568
    -0.5521

          k = 0.0000 0.2670 0.0000 (  7063 PWs)   bands (ev):

   -15.4977 -14.8399  -7.2911  -5.0467  -4.5206  -3.2780  -2.8691  -2.0707
    -0.7830

          k = 0.0000 0.4004 0.0000 (  7067 PWs)   bands (ev):

   -14.6277 -14.0061  -7.8446  -6.6618  -5.8257  -3.5276  -2.7136  -2.6961
    -1.5386

          k = 0.0000 0.5339 0.0000 (  7017 PWs)   bands (ev):

   -13.7659 -13.2112  -9.2547  -8.1617  -5.0296  -3.8865  -3.0405  -2.5507
    -2.2358

          k = 0.1156 0.2002 0.0000 (  7085 PWs)   bands (ev):

   -15.6852 -15.0219  -7.4061  -4.3283  -3.8613  -3.3177  -2.9659  -2.1338
    -0.6510

          k = 0.1156 0.3337 0.0000 (  7074 PWs)   bands (ev):

   -14.9562 -14.3181  -7.2603  -5.7345  -5.7043  -3.9825  -3.1201  -2.8926
    -1.1165

          k = 0.1156 0.4672 0.0000 (  7038 PWs)   bands (ev):

   -14.0397 -13.4561  -8.5748  -7.4752  -5.3636  -4.5371  -3.7324  -2.3467
    -2.0553

          k = 0.1156-0.6007 0.0000 (  7006 PWs)   bands (ev):

   -13.5048 -12.9764  -9.3895  -8.2811  -5.0940  -4.3648  -3.9431  -2.7901
    -2.0809

          k = 0.2312 0.4004 0.0000 (  7023 PWs)   bands (ev):

   -14.1516 -13.5572  -8.0390  -6.8925  -5.4675  -5.2790  -4.4978  -2.3976
    -1.7779

          k = 0.2312-0.6674 0.0000 (  7009 PWs)   bands (ev):

   -13.3920 -12.8680  -8.9696  -7.8478  -6.2673  -5.2699  -4.3565  -2.6886
    -1.9973

          k = 0.3468-0.6007 0.0000 (  7032 PWs)   bands (ev):

   -13.0836 -12.5968  -9.0112  -7.8509  -7.0149  -6.0379  -3.5166  -3.4179
    -1.8502

     highest occupied level (ev):    -0.5521

!    total energy              =    -155.61875859 Ry
     total all-electron energy =     -1696.299694 Ry
     estimated scf accuracy    <          2.5E-09 Ry

     The total energy is the sum of the following terms:
     one-electron contribution =    -253.55996521 Ry
     hartree contribution      =     132.13785002 Ry
     xc contribution           =     -16.01077795 Ry
     ewald contribution        =      84.51395549 Ry
     one-center paw contrib.   =    -102.69982095 Ry

     convergence has been achieved in  23 iterations

     negative rho (up, down):  8.753E-05 0.000E+00

     Forces acting on atoms (cartesian axes, Ry/au):

     atom    1 type  2   force =     0.00000000    0.00000000   -0.01465709
     atom    2 type  1   force =     0.00000000    0.00000000    0.02046950
     atom    3 type  1   force =     0.00000000    0.00000000   -0.02063196
     atom    4 type  2   force =     0.00000000    0.00000000    0.01481955
     The non-local contrib.  to forces
     atom    1 type  2   force =     0.00000000    0.00000000   -0.33882925
     atom    2 type  1   force =     0.00000000    0.00000000    0.35489222
     atom    3 type  1   force =     0.00000000    0.00000000   -0.35508037
     atom    4 type  2   force =     0.00000000    0.00000000    0.33880198
     The ionic contribution  to forces
     atom    1 type  2   force =     0.00000006    0.00000004   18.08456960
     atom    2 type  1   force =    -0.00000006   -0.00000004    3.73184359
     atom    3 type  1   force =    -0.00000006   -0.00000004   -3.73240955
     atom    4 type  2   force =     0.00000006    0.00000004  -18.08400363
     The local contribution  to forces
     atom    1 type  2   force =     0.00000012    0.00000007  -17.76563932
     atom    2 type  1   force =    -0.00000004   -0.00000002   -4.05423615
     atom    3 type  1   force =    -0.00000004   -0.00000002    4.05505723
     atom    4 type  2   force =     0.00000012    0.00000007   17.76496705
     The core correction contribution to forces
     atom    1 type  2   force =    -0.00000000   -0.00000000    0.00510827
     atom    2 type  1   force =    -0.00000000   -0.00000000   -0.01219801
     atom    3 type  1   force =    -0.00000000   -0.00000000    0.01166920
     atom    4 type  2   force =    -0.00000000   -0.00000000   -0.00510789
     The Hubbard contrib.    to forces
     atom    1 type  2   force =     0.00000000    0.00000000    0.00000000
     atom    2 type  1   force =     0.00000000    0.00000000    0.00000000
     atom    3 type  1   force =     0.00000000    0.00000000    0.00000000
     atom    4 type  2   force =     0.00000000    0.00000000    0.00000000
     The SCF correction term to forces
     atom    1 type  2   force =     0.00000000    0.00000000   -0.00002031
     atom    2 type  1   force =    -0.00000000   -0.00000000    0.00001393
     atom    3 type  1   force =     0.00000000    0.00000000   -0.00002239
     atom    4 type  2   force =     0.00000000    0.00000000    0.00000812

     Total force =     0.035765     Total SCF correction =     0.000034


     Computing stress (Cartesian axis) and pressure


     negative rho (up, down):  8.753E-05 0.000E+00
          total   stress  (Ry/bohr**3)                   (kbar)     P=      -13.59
  -0.00011907   0.00000000   0.00000000          -17.52        0.00        0.00
   0.00000000  -0.00011907   0.00000000            0.00      -17.52        0.00
   0.00000000   0.00000000  -0.00003896            0.00        0.00       -5.73

     Energy error            =      3.6E-03 Ry
     Gradient error          =      2.1E-02 Ry/Bohr
     Cell gradient error     =      1.8E+01 kbar

     number of scf cycles    =   4
     number of bfgs steps    =   3

     enthalpy           old  =    -155.6151530749 Ry
     enthalpy           new  =    -155.6187585889 Ry

     CASE: enthalpy          _new < enthalpy          _old

     new trust radius        =       0.0597751107 bohr
     new conv_thr            =       0.0000002063 Ry

     new unit-cell volume =    812.21192 a.u.^3 (   120.35739 Ang^3 )
     density =      1.18310 g/cm^3

CELL_PARAMETERS (angstrom)
   3.043865332   0.000000000   0.000000000
   1.521932666   2.636064701   0.000000000
   0.000000000   0.000000000  15.000000000

ATOMIC_POSITIONS (crystal)
S             0.3333333300        0.3333333300        0.5493577340
B             0.6666666700        0.6666666700        0.4923786359
B             0.6666666700        0.6666666700        0.3775932655
S             0.3333333300        0.3333333300        0.3206703646



     Writing config-only to output data dir ./tmp/BS.save/
     NEW-OLD atomic charge density approx. for the potential

     negative rho (up, down):  8.948E-05 0.000E+00
     extrapolated charge   17.62050, renormalised to   18.00000

     total cpu time spent up to now is      110.0 secs

     Self-consistent Calculation

     iteration #  1     ecut=    60.00 Ry     beta= 0.70
     Davidson diagonalization with overlap
     ethr =  1.00E-06,  avg # of iterations = 11.8

     negative rho (up, down):  1.324E-04 0.000E+00

     total cpu time spent up to now is      113.2 secs

     total energy              =    -155.44016734 Ry
     estimated scf accuracy    <       0.15310218 Ry

     iteration #  2     ecut=    60.00 Ry     beta= 0.70
     Davidson diagonalization with overlap
     ethr =  8.51E-04,  avg # of iterations =  4.9

     negative rho (up, down):  2.799E-06 0.000E+00

     total cpu time spent up to now is      114.9 secs

     total energy              =    -155.51475138 Ry
     estimated scf accuracy    <       1.35888586 Ry

     iteration #  3     ecut=    60.00 Ry     beta= 0.70
     Davidson diagonalization with overlap
     ethr =  8.51E-04,  avg # of iterations =  3.2

     negative rho (up, down):  7.888E-05 0.000E+00

     total cpu time spent up to now is      116.3 secs

     total energy              =    -155.61104747 Ry
     estimated scf accuracy    <       0.12025173 Ry

     iteration #  4     ecut=    60.00 Ry     beta= 0.70
     Davidson diagonalization with overlap
     ethr =  6.68E-04,  avg # of iterations =  2.0

     negative rho (up, down):  8.377E-05 0.000E+00

     total cpu time spent up to now is      117.4 secs

     total energy              =    -155.62004963 Ry
     estimated scf accuracy    <       0.02284156 Ry

     iteration #  5     ecut=    60.00 Ry     beta= 0.70
     Davidson diagonalization with overlap
     ethr =  1.27E-04,  avg # of iterations =  2.2

     negative rho (up, down):  9.490E-05 0.000E+00

     total cpu time spent up to now is      118.4 secs

     total energy              =    -155.62090053 Ry
     estimated scf accuracy    <       0.01116505 Ry

     iteration #  6     ecut=    60.00 Ry     beta= 0.70
     Davidson diagonalization with overlap
     ethr =  6.20E-05,  avg # of iterations =  1.2

     negative rho (up, down):  1.195E-04 0.000E+00

     total cpu time spent up to now is      119.5 secs

     total energy              =    -155.62003665 Ry
     estimated scf accuracy    <       0.00688213 Ry

     iteration #  7     ecut=    60.00 Ry     beta= 0.70
     Davidson diagonalization with overlap
     ethr =  3.82E-05,  avg # of iterations =  2.0

     negative rho (up, down):  1.328E-04 0.000E+00

     total cpu time spent up to now is      120.9 secs

     total energy              =    -155.61995505 Ry
     estimated scf accuracy    <       0.00204829 Ry

     iteration #  8     ecut=    60.00 Ry     beta= 0.70
     Davidson diagonalization with overlap
     ethr =  1.14E-05,  avg # of iterations =  2.6

     negative rho (up, down):  1.263E-04 0.000E+00

     total cpu time spent up to now is      122.4 secs

     total energy              =    -155.62037134 Ry
     estimated scf accuracy    <       0.00009888 Ry

     iteration #  9     ecut=    60.00 Ry     beta= 0.70
     Davidson diagonalization with overlap
     ethr =  5.49E-07,  avg # of iterations =  4.6

     negative rho (up, down):  1.230E-04 0.000E+00

     total cpu time spent up to now is      124.2 secs

     total energy              =    -155.62042492 Ry
     estimated scf accuracy    <       0.00000780 Ry

     iteration # 10     ecut=    60.00 Ry     beta= 0.70
     Davidson diagonalization with overlap
     ethr =  4.33E-08,  avg # of iterations =  3.2

     negative rho (up, down):  1.082E-04 0.000E+00

     total cpu time spent up to now is      125.6 secs

     total energy              =    -155.62042329 Ry
     estimated scf accuracy    <       0.00000701 Ry

     iteration # 11     ecut=    60.00 Ry     beta= 0.70
     Davidson diagonalization with overlap
     ethr =  3.89E-08,  avg # of iterations =  2.7

     negative rho (up, down):  9.861E-05 0.000E+00

     total cpu time spent up to now is      127.2 secs

     total energy              =    -155.62042661 Ry
     estimated scf accuracy    <       0.00001160 Ry

     iteration # 12     ecut=    60.00 Ry     beta= 0.70
     Davidson diagonalization with overlap
     ethr =  3.89E-08,  avg # of iterations =  1.0

     negative rho (up, down):  9.887E-05 0.000E+00

     total cpu time spent up to now is      128.1 secs

     total energy              =    -155.62042285 Ry
     estimated scf accuracy    <       0.00001352 Ry

     iteration # 13     ecut=    60.00 Ry     beta= 0.70
     Davidson diagonalization with overlap
     ethr =  3.89E-08,  avg # of iterations =  2.0

     negative rho (up, down):  9.978E-05 0.000E+00

     total cpu time spent up to now is      129.2 secs

     total energy              =    -155.62042314 Ry
     estimated scf accuracy    <       0.00000262 Ry

     iteration # 14     ecut=    60.00 Ry     beta= 0.70
     Davidson diagonalization with overlap
     ethr =  1.45E-08,  avg # of iterations =  2.3

     negative rho (up, down):  1.003E-04 0.000E+00

     total cpu time spent up to now is      130.4 secs

     total energy              =    -155.62042316 Ry
     estimated scf accuracy    <       0.00000037 Ry

     iteration # 15     ecut=    60.00 Ry     beta= 0.70
     Davidson diagonalization with overlap
     ethr =  2.08E-09,  avg # of iterations =  3.9

     negative rho (up, down):  9.985E-05 0.000E+00

     total cpu time spent up to now is      131.9 secs

     total energy              =    -155.62042348 Ry
     estimated scf accuracy    <       0.00000137 Ry

     iteration # 16     ecut=    60.00 Ry     beta= 0.70
     Davidson diagonalization with overlap
     ethr =  2.08E-09,  avg # of iterations =  2.0

     negative rho (up, down):  9.983E-05 0.000E+00

     total cpu time spent up to now is      133.2 secs

     total energy              =    -155.62042335 Ry
     estimated scf accuracy    <       0.00000050 Ry

     iteration # 17     ecut=    60.00 Ry     beta= 0.70
     Davidson diagonalization with overlap
     ethr =  2.08E-09,  avg # of iterations =  2.3

     negative rho (up, down):  9.978E-05 0.000E+00

     total cpu time spent up to now is      134.3 secs

     End of self-consistent calculation

          k = 0.0000 0.0000 0.0000 (  7035 PWs)   bands (ev):

   -16.4065 -15.7183  -7.8617  -3.9076  -1.6137  -1.6137  -0.9104  -0.9104
    -0.3826

          k =-0.0000 0.1349 0.0000 (  7093 PWs)   bands (ev):

   -16.2037 -15.5190  -7.6763  -3.7574  -2.8506  -2.1322  -2.0290  -1.2869
    -0.3671

          k =-0.0000 0.2698 0.0000 (  7063 PWs)   bands (ev):

   -15.6121 -14.9407  -7.2052  -5.0612  -4.4849  -3.2580  -2.8262  -2.0319
    -0.5825

          k =-0.0000 0.4046 0.0000 (  7067 PWs)   bands (ev):

   -14.7094 -14.0705  -7.8047  -6.7016  -5.8236  -3.5060  -2.6805  -2.6592
    -1.3503

          k =-0.0000 0.5395 0.0000 (  7017 PWs)   bands (ev):

   -13.8035 -13.2274  -9.3110  -8.2672  -4.9439  -3.8758  -3.0365  -2.4116
    -2.1562

          k = 0.1168 0.2023 0.0000 (  7085 PWs)   bands (ev):

   -15.8059 -15.1295  -7.3375  -4.3078  -3.7812  -3.3226  -2.9277  -2.1009
    -0.4559

          k = 0.1168 0.3372 0.0000 (  7074 PWs)   bands (ev):

   -15.0513 -14.3973  -7.1479  -5.7838  -5.7035  -3.9769  -3.1207  -2.8534
    -0.9192

          k = 0.1168 0.4721 0.0000 (  7038 PWs)   bands (ev):

   -14.0944 -13.4906  -8.5860  -7.5453  -5.3099  -4.5514  -3.7514  -2.2778
    -1.8903

          k = 0.1168-0.6070 0.0000 (  7006 PWs)   bands (ev):

   -13.5268 -12.9761  -9.4543  -8.3950  -5.0515  -4.3259  -3.9673  -2.6623
    -1.9977

          k = 0.2336 0.4046 0.0000 (  7023 PWs)   bands (ev):

   -14.2129 -13.5989  -7.9996  -6.9274  -5.5065  -5.2608  -4.5533  -2.3324
    -1.5985

          k = 0.2336-0.6744 0.0000 (  7009 PWs)   bands (ev):

   -13.4105 -12.8634  -8.9977  -7.9341  -6.3274  -5.3468  -4.2796  -2.5431
    -1.9123

          k = 0.3504-0.6070 0.0000 (  7032 PWs)   bands (ev):

   -13.0816 -12.5708  -9.0312  -7.9343  -7.1227  -6.1520  -3.4276  -3.2688
    -1.7580

     highest occupied level (ev):    -0.3671

!    total energy              =    -155.62042344 Ry
     total all-electron energy =     -1696.301359 Ry
     estimated scf accuracy    <          2.4E-09 Ry

     The total energy is the sum of the following terms:
     one-electron contribution =    -260.43323308 Ry
     hartree contribution      =     135.63000127 Ry
     xc contribution           =     -16.07991781 Ry
     ewald contribution        =      87.96557748 Ry
     one-center paw contrib.   =    -102.70285130 Ry

     convergence has been achieved in  17 iterations

     negative rho (up, down):  9.978E-05 0.000E+00

     Forces acting on atoms (cartesian axes, Ry/au):

     atom    1 type  2   force =     0.00000000    0.00000000   -0.00114971
     atom    2 type  1   force =     0.00000000    0.00000000    0.00375333
     atom    3 type  1   force =     0.00000000    0.00000000   -0.00361498
     atom    4 type  2   force =     0.00000000    0.00000000    0.00101136
     The non-local contrib.  to forces
     atom    1 type  2   force =     0.00000000    0.00000000   -0.33033085
     atom    2 type  1   force =     0.00000000    0.00000000    0.33491779
     atom    3 type  1   force =     0.00000000    0.00000000   -0.33485176
     atom    4 type  2   force =     0.00000000    0.00000000    0.33023736
     The ionic contribution  to forces
     atom    1 type  2   force =     0.00000006    0.00000004   18.51300840
     atom    2 type  1   force =    -0.00000006   -0.00000004    3.80493587
     atom    3 type  1   force =    -0.00000006   -0.00000004   -3.80674732
     atom    4 type  2   force =     0.00000006    0.00000004  -18.51119695
     The local contribution  to forces
     atom    1 type  2   force =     0.00000011    0.00000006  -18.18877447
     atom    2 type  1   force =    -0.00000004   -0.00000002   -4.12521408
     atom    3 type  1   force =    -0.00000004   -0.00000002    4.12740381
     atom    4 type  2   force =     0.00000011    0.00000006   18.18651097
     The core correction contribution to forces
     atom    1 type  2   force =    -0.00000000   -0.00000000    0.00464471
     atom    2 type  1   force =    -0.00000000   -0.00000000   -0.01110869
     atom    3 type  1   force =    -0.00000000   -0.00000000    0.01042688
     atom    4 type  2   force =    -0.00000000   -0.00000000   -0.00464327
     The Hubbard contrib.    to forces
     atom    1 type  2   force =     0.00000000    0.00000000    0.00000000
     atom    2 type  1   force =     0.00000000    0.00000000    0.00000000
     atom    3 type  1   force =     0.00000000    0.00000000    0.00000000
     atom    4 type  2   force =     0.00000000    0.00000000    0.00000000
     The SCF correction term to forces
     atom    1 type  2   force =     0.00000000    0.00000000    0.00013224
     atom    2 type  1   force =     0.00000000    0.00000000    0.00005218
     atom    3 type  1   force =     0.00000000    0.00000000   -0.00001686
     atom    4 type  2   force =     0.00000000    0.00000000   -0.00006701

     Total force =     0.005431     Total SCF correction =     0.000158


     Computing stress (Cartesian axis) and pressure


     negative rho (up, down):  9.978E-05 0.000E+00
          total   stress  (Ry/bohr**3)                   (kbar)     P=        0.76
   0.00000538  -0.00000000   0.00000000            0.79       -0.00        0.00
  -0.00000000   0.00000538   0.00000000           -0.00        0.79        0.00
   0.00000000   0.00000000   0.00000478            0.00        0.00        0.70

     Energy error            =      1.7E-03 Ry
     Gradient error          =      3.8E-03 Ry/Bohr
     Cell gradient error     =      7.9E-01 kbar

     number of scf cycles    =   5
     number of bfgs steps    =   4

     enthalpy           old  =    -155.6187585889 Ry
     enthalpy           new  =    -155.6204234409 Ry

     CASE: enthalpy          _new < enthalpy          _old

     new trust radius        =       0.0044407163 bohr
     new conv_thr            =       0.0000000375 Ry

     new unit-cell volume =    813.14651 a.u.^3 (   120.49588 Ang^3 )
     density =      1.18174 g/cm^3

CELL_PARAMETERS (angstrom)
   3.045616068   0.000000000   0.000000000
   1.522808034   2.637580883   0.000000000
   0.000000000   0.000000000  15.000000000

ATOMIC_POSITIONS (crystal)
S             0.3333333300        0.3333333300        0.5493414273
B             0.6666666700        0.6666666700        0.4925352976
B             0.6666666700        0.6666666700        0.3774414122
S             0.3333333300        0.3333333300        0.3206818630



     Writing config-only to output data dir ./tmp/BS.save/
     NEW-OLD atomic charge density approx. for the potential

     negative rho (up, down):  9.963E-05 0.000E+00
     extrapolated charge   18.02069, renormalised to   18.00000

     total cpu time spent up to now is      140.7 secs

     Self-consistent Calculation

     iteration #  1     ecut=    60.00 Ry     beta= 0.70
     Davidson diagonalization with overlap
     ethr =  1.00E-06,  avg # of iterations =  3.4

     negative rho (up, down):  9.319E-05 0.000E+00

     total cpu time spent up to now is      142.8 secs

     total energy              =    -155.61984173 Ry
     estimated scf accuracy    <       0.00051748 Ry

     iteration #  2     ecut=    60.00 Ry     beta= 0.70
     Davidson diagonalization with overlap
     ethr =  2.87E-06,  avg # of iterations =  4.5

     negative rho (up, down):  9.508E-05 0.000E+00

     total cpu time spent up to now is      145.0 secs

     total energy              =    -155.62019388 Ry
     estimated scf accuracy    <       0.00350767 Ry

     iteration #  3     ecut=    60.00 Ry     beta= 0.70
     Davidson diagonalization with overlap
     ethr =  2.87E-06,  avg # of iterations =  3.2

     negative rho (up, down):  9.683E-05 0.000E+00

     total cpu time spent up to now is      146.2 secs

     total energy              =    -155.62041822 Ry
     estimated scf accuracy    <       0.00037354 Ry

     iteration #  4     ecut=    60.00 Ry     beta= 0.70
     Davidson diagonalization with overlap
     ethr =  2.08E-06,  avg # of iterations =  2.0

     negative rho (up, down):  9.816E-05 0.000E+00

     total cpu time spent up to now is      147.4 secs

     total energy              =    -155.62043430 Ry
     estimated scf accuracy    <       0.00008318 Ry

     iteration #  5     ecut=    60.00 Ry     beta= 0.70
     Davidson diagonalization with overlap
     ethr =  4.62E-07,  avg # of iterations =  2.3

     negative rho (up, down):  9.832E-05 0.000E+00

     total cpu time spent up to now is      148.6 secs

     total energy              =    -155.62044506 Ry
     estimated scf accuracy    <       0.00001637 Ry

     iteration #  6     ecut=    60.00 Ry     beta= 0.70
     Davidson diagonalization with overlap
     ethr =  9.09E-08,  avg # of iterations =  1.8

     negative rho (up, down):  9.902E-05 0.000E+00

     total cpu time spent up to now is      149.7 secs

     total energy              =    -155.62044340 Ry
     estimated scf accuracy    <       0.00001221 Ry

     iteration #  7     ecut=    60.00 Ry     beta= 0.70
     Davidson diagonalization with overlap
     ethr =  6.78E-08,  avg # of iterations =  2.0

     negative rho (up, down):  9.924E-05 0.000E+00

     total cpu time spent up to now is      150.6 secs

     total energy              =    -155.62044312 Ry
     estimated scf accuracy    <       0.00000418 Ry

     iteration #  8     ecut=    60.00 Ry     beta= 0.70
     Davidson diagonalization with overlap
     ethr =  2.32E-08,  avg # of iterations =  2.5

     negative rho (up, down):  9.924E-05 0.000E+00

     total cpu time spent up to now is      151.7 secs

     total energy              =    -155.62044392 Ry
     estimated scf accuracy    <       0.00000012 Ry

     iteration #  9     ecut=    60.00 Ry     beta= 0.70
     Davidson diagonalization with overlap
     ethr =  6.52E-10,  avg # of iterations =  4.8

     negative rho (up, down):  9.929E-05 0.000E+00

     total cpu time spent up to now is      153.5 secs

     total energy              =    -155.62044404 Ry
     estimated scf accuracy    <       0.00000006 Ry

     iteration # 10     ecut=    60.00 Ry     beta= 0.70
     Davidson diagonalization with overlap
     ethr =  3.44E-10,  avg # of iterations =  1.8

     negative rho (up, down):  9.932E-05 0.000E+00

     total cpu time spent up to now is      154.7 secs

     total energy              =    -155.62044404 Ry
     estimated scf accuracy    <       0.00000009 Ry

     iteration # 11     ecut=    60.00 Ry     beta= 0.70
     Davidson diagonalization with overlap
     ethr =  3.44E-10,  avg # of iterations =  1.2

     negative rho (up, down):  9.930E-05 0.000E+00

     total cpu time spent up to now is      155.8 secs

     total energy              =    -155.62044401 Ry
     estimated scf accuracy    <       0.00000006 Ry

     iteration # 12     ecut=    60.00 Ry     beta= 0.70
     Davidson diagonalization with overlap
     ethr =  3.44E-10,  avg # of iterations =  2.1

     negative rho (up, down):  9.927E-05 0.000E+00

     total cpu time spent up to now is      157.2 secs

     End of self-consistent calculation

          k = 0.0000 0.0000 0.0000 (  7035 PWs)   bands (ev):

   -16.4095 -15.7235  -7.8513  -3.9077  -1.6342  -1.6342  -0.9358  -0.9358
    -0.3701

          k =-0.0000 0.1348 0.0000 (  7093 PWs)   bands (ev):

   -16.2070 -15.5246  -7.6662  -3.7580  -2.8690  -2.1551  -2.0484  -1.3115
    -0.3555

          k =-0.0000 0.2696 0.0000 (  7063 PWs)   bands (ev):

   -15.6165 -14.9474  -7.1967  -5.0750  -4.5025  -3.2606  -2.8440  -2.0552
    -0.5729

          k =-0.0000 0.4044 0.0000 (  7067 PWs)   bands (ev):

   -14.7159 -14.0793  -7.8114  -6.7156  -5.8191  -3.5226  -2.7027  -2.6626
    -1.3429

          k =-0.0000 0.5392 0.0000 (  7017 PWs)   bands (ev):

   -13.8127 -13.2388  -9.3167  -8.2775  -4.9377  -3.8919  -3.0582  -2.4043
    -2.1611

          k = 0.1167 0.2022 0.0000 (  7085 PWs)   bands (ev):

   -15.8099 -15.1359  -7.3281  -4.3240  -3.7956  -3.3298  -2.9445  -2.1233
    -0.4456

          k = 0.1167 0.3370 0.0000 (  7074 PWs)   bands (ev):

   -15.0569 -14.4053  -7.1483  -5.7877  -5.7196  -3.9913  -3.1399  -2.8574
    -0.9114

          k = 0.1167 0.4718 0.0000 (  7038 PWs)   bands (ev):

   -14.1025 -13.5010  -8.5931  -7.5575  -5.3055  -4.5635  -3.7704  -2.2824
    -1.8838

          k = 0.1167-0.6066 0.0000 (  7006 PWs)   bands (ev):

   -13.5370 -12.9883  -9.4595  -8.4049  -5.0580  -4.3273  -3.9859  -2.6551
    -2.0032

          k = 0.2335 0.4044 0.0000 (  7023 PWs)   bands (ev):

   -14.2206 -13.6089  -8.0075  -6.9415  -5.5170  -5.2565  -4.5697  -2.3367
    -1.5923

          k = 0.2335-0.6740 0.0000 (  7009 PWs)   bands (ev):

   -13.4209 -12.8759  -9.0042  -7.9455  -6.3362  -5.3615  -4.2752  -2.5370
    -1.9179

          k = 0.3502-0.6066 0.0000 (  7032 PWs)   bands (ev):

   -13.0933 -12.5843  -9.0377  -7.9458  -7.1298  -6.1643  -3.4285  -3.2578
    -1.7642

     highest occupied level (ev):    -0.3555

!    total energy              =    -155.62044403 Ry
     total all-electron energy =     -1696.301380 Ry
     estimated scf accuracy    <          8.4E-10 Ry

     The total energy is the sum of the following terms:
     one-electron contribution =    -260.09864338 Ry
     hartree contribution      =     135.45582411 Ry
     xc contribution           =     -16.07716255 Ry
     ewald contribution        =      87.80224967 Ry
     one-center paw contrib.   =    -102.70271188 Ry

     convergence has been achieved in  12 iterations

     negative rho (up, down):  9.927E-05 0.000E+00

     Forces acting on atoms (cartesian axes, Ry/au):

     atom    1 type  2   force =     0.00000000    0.00000000   -0.00006668
     atom    2 type  1   force =     0.00000000    0.00000000    0.00029262
     atom    3 type  1   force =     0.00000000    0.00000000   -0.00024957
     atom    4 type  2   force =     0.00000000    0.00000000    0.00002364
     The non-local contrib.  to forces
     atom    1 type  2   force =     0.00000000    0.00000000   -0.33059578
     atom    2 type  1   force =     0.00000000    0.00000000    0.33180150
     atom    3 type  1   force =     0.00000000    0.00000000   -0.33175246
     atom    4 type  2   force =     0.00000000    0.00000000    0.33051994
     The ionic contribution  to forces
     atom    1 type  2   force =     0.00000006    0.00000004   18.48064964
     atom    2 type  1   force =    -0.00000006   -0.00000004    3.80216747
     atom    3 type  1   force =    -0.00000006   -0.00000004   -3.80367841
     atom    4 type  2   force =     0.00000006    0.00000004  -18.47913869
     The local contribution  to forces
     atom    1 type  2   force =     0.00000011    0.00000006  -18.15494252
     atom    2 type  1   force =    -0.00000004   -0.00000002   -4.12283403
     atom    3 type  1   force =    -0.00000004   -0.00000002    4.12471023
     atom    4 type  2   force =     0.00000011    0.00000006   18.15310454
     The core correction contribution to forces
     atom    1 type  2   force =    -0.00000000   -0.00000000    0.00466783
     atom    2 type  1   force =    -0.00000000   -0.00000000   -0.01101877
     atom    3 type  1   force =    -0.00000000   -0.00000000    0.01029301
     atom    4 type  2   force =    -0.00000000   -0.00000000   -0.00466638
     The Hubbard contrib.    to forces
     atom    1 type  2   force =     0.00000000    0.00000000    0.00000000
     atom    2 type  1   force =     0.00000000    0.00000000    0.00000000
     atom    3 type  1   force =     0.00000000    0.00000000    0.00000000
     atom    4 type  2   force =     0.00000000    0.00000000    0.00000000
     The SCF correction term to forces
     atom    1 type  2   force =     0.00000000    0.00000000   -0.00001877
     atom    2 type  1   force =     0.00000000    0.00000000    0.00000353
     atom    3 type  1   force =     0.00000000    0.00000000    0.00000515
     atom    4 type  2   force =     0.00000000    0.00000000    0.00003131

     Total force =     0.000391     Total SCF correction =     0.000037


     Computing stress (Cartesian axis) and pressure


     negative rho (up, down):  9.927E-05 0.000E+00
          total   stress  (Ry/bohr**3)                   (kbar)     P=       -0.00
   0.00000060   0.00000000   0.00000000            0.09        0.00        0.00
   0.00000000   0.00000060   0.00000000            0.00        0.09        0.00
   0.00000000   0.00000000  -0.00000126            0.00        0.00       -0.18

     Energy error            =      2.1E-05 Ry
     Gradient error          =      2.9E-04 Ry/Bohr
     Cell gradient error     =      8.8E-02 kbar

     bfgs converged in   6 scf cycles and   5 bfgs steps
     (criteria: energy <  1.0E-04 Ry, force <  1.0E-03 Ry/Bohr, cell <  5.0E-01 kbar)

     End of BFGS Geometry Optimization

     Final enthalpy           =    -155.6204440255 Ry

     File ./tmp/BS.bfgs deleted, as requested
Begin final coordinates
     new unit-cell volume =    813.14651 a.u.^3 (   120.49588 Ang^3 )
     density =      1.18174 g/cm^3

CELL_PARAMETERS (angstrom)
   3.045616068   0.000000000   0.000000000
   1.522808034   2.637580883   0.000000000
   0.000000000   0.000000000  15.000000000

ATOMIC_POSITIONS (crystal)
S             0.3333333300        0.3333333300        0.5493414273
B             0.6666666700        0.6666666700        0.4925352976
B             0.6666666700        0.6666666700        0.3774414122
S             0.3333333300        0.3333333300        0.3206818630
End final coordinates



     Writing config-only to output data dir ./tmp/BS.save/

     Final scf calculation at the relaxed structure.
     The G-vectors are recalculated for the final unit cell
     Results may differ from those at the preceding step.

     Parallelization info
     --------------------
     sticks:   dense  smooth     PW     G-vecs:    dense   smooth      PW
     Min         137     137     40                12768    12768    2100
     Max         148     148     41                12775    12775    2115
     Sum         559     559    163                51085    51085    8435

     Using Slab Decomposition



     bravais-lattice index     =            0
     lattice parameter (alat)  =       6.0471  a.u.
     unit-cell volume          =     813.1465 (a.u.)^3
     number of atoms/cell      =            4
     number of atomic types    =            2
     number of electrons       =        18.00
     number of Kohn-Sham states=            9
     kinetic-energy cutoff     =      60.0000  Ry
     charge density cutoff     =     240.0000  Ry
     scf convergence threshold =      3.8E-08
     mixing beta               =       0.7000
     number of iterations used =            8  plain     mixing
     press convergence thresh. =      5.0E-01
     Exchange-correlation= SLA  PW   PBX  PBC
                           (   1   4   3   4   0   0   0)

     celldm(1)=   6.047124  celldm(2)=   0.000000  celldm(3)=   0.000000
     celldm(4)=   0.000000  celldm(5)=   0.000000  celldm(6)=   0.000000

     crystal axes: (cart. coord. in units of alat)
               a(1) = (   0.951755   0.000000   0.000000 )  
               a(2) = (   0.475878   0.824244   0.000000 )  
               a(3) = (   0.000000   0.000000   4.687500 )  

     reciprocal axes: (cart. coord. in units 2 pi/alat)
               b(1) = (  1.050691 -0.606616  0.000000 )  
               b(2) = ( -0.000000  1.213233  0.000000 )  
               b(3) = (  0.000000  0.000000  0.213333 )  


     PseudoPot. # 1 for B  read from file:
     /home/aljawimth/maj/pseudo/B.pbe-n-kjpaw_psl.1.0.0.UPF
     MD5 check sum: 8c825a5969375aca5c2c6ad5945b3059
     Pseudo is Projector augmented-wave + core cor, Zval =  3.0
     Generated using &quot;atomic&quot; code by A. Dal Corso  v.6.3
     Shape of augmentation charge: PSQ
     Using radial grid of 1059 points,  4 beta functions with: 
                l(1) =   0
                l(2) =   0
                l(3) =   1
                l(4) =   1
     Q(r) pseudized with 0 coefficients 


     PseudoPot. # 2 for S  read from file:
     /home/aljawimth/maj/pseudo/S.pbe-n-kjpaw_psl.1.0.0.UPF
     MD5 check sum: fb45dfebcf3e72a4e1bd4a866ec2e262
     Pseudo is Projector augmented-wave + core cor, Zval =  6.0
     Generated using &quot;atomic&quot; code by A. Dal Corso  v.6.3
     Shape of augmentation charge: PSQ
     Using radial grid of 1151 points,  6 beta functions with: 
                l(1) =   0
                l(2) =   0
                l(3) =   1
                l(4) =   1
                l(5) =   2
                l(6) =   2
     Q(r) pseudized with 0 coefficients 


     atomic species   valence    mass     pseudopotential
        B              3.00    10.81100     B ( 1.00)
        S              6.00    32.06500     S ( 1.00)

      6 Sym. Ops. (no inversion) found



   Cartesian axes

     site n.     atom                  positions (alat units)
         1           S   tau(   1) = (   0.4758775   0.2747480   2.5750379  )
         2           B   tau(   2) = (   0.9517550   0.5494960   2.3087592  )
         3           B   tau(   3) = (   0.9517550   0.5494960   1.7692566  )
         4           S   tau(   4) = (   0.4758775   0.2747480   1.5031962  )

     number of k points=    12
                       cart. coord. in units 2pi/alat
        k(    1) = (   0.0000000   0.0000000   0.0000000), wk =   0.0246914
        k(    2) = (  -0.0000000   0.1348037   0.0000000), wk =   0.1481481
        k(    3) = (  -0.0000000   0.2696073   0.0000000), wk =   0.1481481
        k(    4) = (  -0.0000000   0.4044110   0.0000000), wk =   0.1481481
        k(    5) = (  -0.0000000   0.5392146   0.0000000), wk =   0.1481481
        k(    6) = (   0.1167434   0.2022055   0.0000000), wk =   0.1481481
        k(    7) = (   0.1167434   0.3370091   0.0000000), wk =   0.2962963
        k(    8) = (   0.1167434   0.4718128   0.0000000), wk =   0.2962963
        k(    9) = (   0.1167434  -0.6066165   0.0000000), wk =   0.1481481
        k(   10) = (   0.2334868   0.4044110   0.0000000), wk =   0.1481481
        k(   11) = (   0.2334868  -0.6740183   0.0000000), wk =   0.2962963
        k(   12) = (   0.3502302  -0.6066165   0.0000000), wk =   0.0493827

     Dense  grid:    51085 G-vectors     FFT dimensions: (  30,  30, 144)

     Estimated max dynamical RAM per process >      56.41 MB

     Estimated total dynamical RAM >     225.65 MB

     Check: negative core charge=   -0.000001

     Initial potential from superposition of free atoms

     starting charge      17.9994, renormalised to      18.0000

     negative rho (up, down):  7.160E-05 0.000E+00
     Starting wfcs are   16 randomized atomic wfcs
     Checking if some PAW data can be deallocated... 

     total cpu time spent up to now is      163.8 secs

     Self-consistent Calculation

     iteration #  1     ecut=    60.00 Ry     beta= 0.70
     Davidson diagonalization with overlap
     ethr =  1.00E-06,  avg # of iterations = 13.2

     negative rho (up, down):  1.219E-04 0.000E+00

     total cpu time spent up to now is      167.0 secs

     total energy              =    -155.48617137 Ry
     estimated scf accuracy    <       0.33111993 Ry

     iteration #  2     ecut=    60.00 Ry     beta= 0.70
     Davidson diagonalization with overlap
     ethr =  1.84E-03,  avg # of iterations =  3.2

     negative rho (up, down):  1.106E-04 0.000E+00

     total cpu time spent up to now is      168.2 secs

     total energy              =    -155.49331771 Ry
     estimated scf accuracy    <       0.64905630 Ry

     iteration #  3     ecut=    60.00 Ry     beta= 0.70
     Davidson diagonalization with overlap
     ethr =  1.84E-03,  avg # of iterations =  3.2

     negative rho (up, down):  1.189E-04 0.000E+00

     total cpu time spent up to now is      169.5 secs

     total energy              =    -155.61563124 Ry
     estimated scf accuracy    <       0.00545999 Ry

     iteration #  4     ecut=    60.00 Ry     beta= 0.70
     Davidson diagonalization with overlap
     ethr =  3.03E-05,  avg # of iterations =  5.3

     negative rho (up, down):  1.288E-04 0.000E+00

     total cpu time spent up to now is      171.4 secs

     total energy              =    -155.61968801 Ry
     estimated scf accuracy    <       0.00898626 Ry

     iteration #  5     ecut=    60.00 Ry     beta= 0.70
     Davidson diagonalization with overlap
     ethr =  3.03E-05,  avg # of iterations =  2.0

     negative rho (up, down):  1.374E-04 0.000E+00

     total cpu time spent up to now is      172.7 secs

     total energy              =    -155.61986949 Ry
     estimated scf accuracy    <       0.00115140 Ry

     iteration #  6     ecut=    60.00 Ry     beta= 0.70
     Davidson diagonalization with overlap
     ethr =  6.40E-06,  avg # of iterations =  3.3

     negative rho (up, down):  1.380E-04 0.000E+00

     total cpu time spent up to now is      174.3 secs

     total energy              =    -155.62038723 Ry
     estimated scf accuracy    <       0.00030264 Ry

     iteration #  7     ecut=    60.00 Ry     beta= 0.70
     Davidson diagonalization with overlap
     ethr =  1.68E-06,  avg # of iterations =  1.1

     negative rho (up, down):  1.378E-04 0.000E+00

     total cpu time spent up to now is      175.2 secs

     total energy              =    -155.62034292 Ry
     estimated scf accuracy    <       0.00017703 Ry

     iteration #  8     ecut=    60.00 Ry     beta= 0.70
     Davidson diagonalization with overlap
     ethr =  9.84E-07,  avg # of iterations =  2.0

     negative rho (up, down):  1.376E-04 0.000E+00

     total cpu time spent up to now is      176.2 secs

     total energy              =    -155.62036171 Ry
     estimated scf accuracy    <       0.00001863 Ry

     iteration #  9     ecut=    60.00 Ry     beta= 0.70
     Davidson diagonalization with overlap
     ethr =  1.03E-07,  avg # of iterations =  2.3

     negative rho (up, down):  1.375E-04 0.000E+00

     total cpu time spent up to now is      177.3 secs

     total energy              =    -155.62036132 Ry
     estimated scf accuracy    <       0.00000706 Ry

     iteration # 10     ecut=    60.00 Ry     beta= 0.70
     Davidson diagonalization with overlap
     ethr =  3.92E-08,  avg # of iterations =  2.7

     negative rho (up, down):  1.375E-04 0.000E+00

     total cpu time spent up to now is      178.4 secs

     total energy              =    -155.62036356 Ry
     estimated scf accuracy    <       0.00000023 Ry

     iteration # 11     ecut=    60.00 Ry     beta= 0.70
     Davidson diagonalization with overlap
     ethr =  1.27E-09,  avg # of iterations =  4.5

     negative rho (up, down):  1.375E-04 0.000E+00

     total cpu time spent up to now is      179.8 secs

     total energy              =    -155.62036354 Ry
     estimated scf accuracy    <       0.00000064 Ry

     iteration # 12     ecut=    60.00 Ry     beta= 0.70
     Davidson diagonalization with overlap
     ethr =  1.27E-09,  avg # of iterations =  2.0

     negative rho (up, down):  1.376E-04 0.000E+00

     total cpu time spent up to now is      180.9 secs

     total energy              =    -155.62036349 Ry
     estimated scf accuracy    <       0.00000015 Ry

     iteration # 13     ecut=    60.00 Ry     beta= 0.70
     Davidson diagonalization with overlap
     ethr =  8.43E-10,  avg # of iterations =  2.9

     negative rho (up, down):  1.376E-04 0.000E+00

     total cpu time spent up to now is      182.4 secs

     total energy              =    -155.62036355 Ry
     estimated scf accuracy    <       0.00000004 Ry

     iteration # 14     ecut=    60.00 Ry     beta= 0.70
     Davidson diagonalization with overlap
     ethr =  2.46E-10,  avg # of iterations =  1.9

     negative rho (up, down):  1.376E-04 0.000E+00

     total cpu time spent up to now is      183.6 secs

     End of self-consistent calculation

          k = 0.0000 0.0000 0.0000 (  6339 PWs)   bands (ev):

   -16.4094 -15.7234  -7.8512  -3.9077  -1.6339  -1.6339  -0.9357  -0.9357
    -0.3699

          k =-0.0000 0.1348 0.0000 (  6323 PWs)   bands (ev):

   -16.2069 -15.5245  -7.6661  -3.7580  -2.8688  -2.1550  -2.0482  -1.3114
    -0.3553

          k =-0.0000 0.2696 0.0000 (  6368 PWs)   bands (ev):

   -15.6165 -14.9474  -7.1965  -5.0748  -4.5024  -3.2605  -2.8438  -2.0550
    -0.5727

          k =-0.0000 0.4044 0.0000 (  6374 PWs)   bands (ev):

   -14.7158 -14.0792  -7.8112  -6.7155  -5.8189  -3.5224  -2.7026  -2.6626
    -1.3427

          k =-0.0000 0.5392 0.0000 (  6390 PWs)   bands (ev):

   -13.8127 -13.2388  -9.3165  -8.2774  -4.9376  -3.8916  -3.0580  -2.4042
    -2.1611

          k = 0.1167 0.2022 0.0000 (  6361 PWs)   bands (ev):

   -15.8099 -15.1358  -7.3279  -4.3238  -3.7955  -3.3298  -2.9442  -2.1232
    -0.4455

          k = 0.1167 0.3370 0.0000 (  6384 PWs)   bands (ev):

   -15.0568 -14.4053  -7.1481  -5.7875  -5.7195  -3.9911  -3.1398  -2.8574
    -0.9112

          k = 0.1167 0.4718 0.0000 (  6382 PWs)   bands (ev):

   -14.1025 -13.5010  -8.5930  -7.5574  -5.3053  -4.5633  -3.7702  -2.2823
    -1.8836

          k = 0.1167-0.6066 0.0000 (  6403 PWs)   bands (ev):

   -13.5369 -12.9883  -9.4593  -8.4048  -5.0578  -4.3271  -3.9858  -2.6550
    -2.0032

          k = 0.2335 0.4044 0.0000 (  6387 PWs)   bands (ev):

   -14.2206 -13.6089  -8.0073  -6.9414  -5.5168  -5.2564  -4.5695  -2.3367
    -1.5921

          k = 0.2335-0.6740 0.0000 (  6404 PWs)   bands (ev):

   -13.4209 -12.8758  -9.0041  -7.9454  -6.3360  -5.3613  -4.2751  -2.5368
    -1.9179

          k = 0.3502-0.6066 0.0000 (  6405 PWs)   bands (ev):

   -13.0932 -12.5843  -9.0375  -7.9457  -7.1296  -6.1642  -3.4285  -3.2575
    -1.7642

     highest occupied level (ev):    -0.3553

!    total energy              =    -155.62036354 Ry
     total all-electron energy =     -1696.301299 Ry
     estimated scf accuracy    <       0.00000001 Ry

     The total energy is the sum of the following terms:
     one-electron contribution =    -260.09792815 Ry
     hartree contribution      =     135.45529136 Ry
     xc contribution           =     -16.07737532 Ry
     ewald contribution        =      87.80224966 Ry
     one-center paw contrib.   =    -102.70260109 Ry

     convergence has been achieved in  14 iterations

     negative rho (up, down):  1.376E-04 0.000E+00

     Forces acting on atoms (cartesian axes, Ry/au):

     atom    1 type  2   force =     0.00000000    0.00000000   -0.00003095
     atom    2 type  1   force =     0.00000000    0.00000000    0.00030586
     atom    3 type  1   force =     0.00000000    0.00000000   -0.00025939
     atom    4 type  2   force =     0.00000000    0.00000000   -0.00001552
     The non-local contrib.  to forces
     atom    1 type  2   force =     0.00000000    0.00000000   -0.33055590
     atom    2 type  1   force =     0.00000000    0.00000000    0.33181438
     atom    3 type  1   force =     0.00000000    0.00000000   -0.33176849
     atom    4 type  2   force =     0.00000000    0.00000000    0.33047855
     The ionic contribution  to forces
     atom    1 type  2   force =     0.00000006    0.00000004   18.48064964
     atom    2 type  1   force =    -0.00000006   -0.00000004    3.80216747
     atom    3 type  1   force =    -0.00000006   -0.00000004   -3.80367841
     atom    4 type  2   force =     0.00000006    0.00000004  -18.47913869
     The local contribution  to forces
     atom    1 type  2   force =     0.00000011    0.00000006  -18.15477816
     atom    2 type  1   force =    -0.00000004   -0.00000002   -4.12274907
     atom    3 type  1   force =    -0.00000004   -0.00000002    4.12461903
     atom    4 type  2   force =     0.00000011    0.00000006   18.15292486
     The core correction contribution to forces
     atom    1 type  2   force =    -0.00000000   -0.00000000    0.00466765
     atom    2 type  1   force =    -0.00000000   -0.00000000   -0.01102786
     atom    3 type  1   force =    -0.00000000   -0.00000000    0.01030592
     atom    4 type  2   force =    -0.00000000   -0.00000000   -0.00466633
     The Hubbard contrib.    to forces
     atom    1 type  2   force =     0.00000000    0.00000000    0.00000000
     atom    2 type  1   force =     0.00000000    0.00000000    0.00000000
     atom    3 type  1   force =     0.00000000    0.00000000    0.00000000
     atom    4 type  2   force =     0.00000000    0.00000000    0.00000000
     The SCF correction term to forces
     atom    1 type  2   force =    -0.00000000   -0.00000000   -0.00019024
     atom    2 type  1   force =    -0.00000000   -0.00000000   -0.00007511
     atom    3 type  1   force =    -0.00000000   -0.00000000    0.00008652
     atom    4 type  2   force =    -0.00000000   -0.00000000    0.00021003

     Total force =     0.000403     Total SCF correction =     0.000306
     SCF correction compared to forces is large: reduce conv_thr to get better values


     Computing stress (Cartesian axis) and pressure


     negative rho (up, down):  1.376E-04 0.000E+00
          total   stress  (Ry/bohr**3)                   (kbar)     P=       -0.00
   0.00000054  -0.00000000   0.00000000            0.08       -0.00        0.00
  -0.00000000   0.00000054   0.00000000           -0.00        0.08        0.00
   0.00000000   0.00000000  -0.00000112            0.00        0.00       -0.16


     Writing all to output data dir ./tmp/BS.save/

     init_run     :      4.31s CPU      4.42s WALL (       2 calls)
     electrons    :    135.20s CPU    142.27s WALL (       7 calls)
     update_pot   :      8.33s CPU      8.49s WALL (       5 calls)
     forces       :      7.59s CPU      7.89s WALL (       7 calls)
     stress       :     21.66s CPU     23.12s WALL (       7 calls)

     Called by init_run:
     wfcinit      :      0.87s CPU      0.92s WALL (       2 calls)
     potinit      :      1.22s CPU      1.24s WALL (       2 calls)
     hinit0       :      1.85s CPU      1.85s WALL (       2 calls)

     Called by electrons:
     c_bands      :     88.51s CPU     90.74s WALL (     100 calls)
     sum_band     :     19.80s CPU     22.49s WALL (     100 calls)
     v_of_rho     :      2.59s CPU      2.69s WALL (     106 calls)
     newd         :      7.76s CPU      9.87s WALL (     106 calls)
     PAW_pot      :     18.33s CPU     18.39s WALL (     111 calls)
     mix_rho      :      0.61s CPU      0.63s WALL (     100 calls)

     Called by c_bands:
     init_us_2    :      2.59s CPU      2.62s WALL (    2652 calls)
     init_us_2:cp :      2.57s CPU      2.61s WALL (    2652 calls)
     cegterg      :     83.19s CPU     85.36s WALL (    1200 calls)

     Called by *egterg:
     cdiaghg      :      0.70s CPU      0.71s WALL (    4821 calls)
     h_psi        :     61.34s CPU     63.41s WALL (    4917 calls)
     s_psi        :      8.73s CPU      8.81s WALL (    4917 calls)
     g_psi        :      0.24s CPU      0.24s WALL (    3693 calls)

     Called by h_psi:
     h_psi:calbec :     10.27s CPU     10.59s WALL (    4917 calls)
     vloc_psi     :     41.84s CPU     43.48s WALL (    4917 calls)
     add_vuspsi   :      8.96s CPU      9.08s WALL (    4917 calls)

     General routines
     calbec       :     14.78s CPU     15.23s WALL (    6597 calls)
     fft          :      1.68s CPU      1.74s WALL (    1347 calls)
     ffts         :      0.09s CPU      0.09s WALL (     100 calls)
     fftw         :     42.42s CPU     44.06s WALL (   79300 calls)

     Parallel routines

     PWSCF        :   2m58.75s CPU   3m 8.08s WALL


   This run was terminated on:  16: 2:11  19Jan2024            

=------------------------------------------------------------------------------=
   JOB DONE.
=------------------------------------------------------------------------------=
