
     Program PWSCF v.7.2 starts on 19Jan2024 at 15:27:41 

     This program is part of the open-source Quantum ESPRESSO suite
     for quantum simulation of materials; please cite
         "P. Giannozzi et al., J. Phys.:Condens. Matter 21 395502 (2009);
         "P. Giannozzi et al., J. Phys.:Condens. Matter 29 465901 (2017);
         "P. Giannozzi et al., J. Chem. Phys. 152 154105 (2020);
          URL http://www.quantum-espresso.org", 
     in publications or presentations arising from this work. More details at
     http://www.quantum-espresso.org/quote

     Parallel version (MPI), running on     4 processors

     MPI processes distributed on     1 nodes
     652 MiB available memory on the printing compute node when the environment starts

     Waiting for input...
     Reading input from standard input

     Current dimensions of program PWSCF are:
     Max number of different atomic species (ntypx) = 10
     Max number of k-points (npk) =  40000
     Max angular momentum in pseudopotentials (lmaxx) =  4
     file S.pbe-n-kjpaw_psl.1.0.0.UPF: wavefunction(s)  3S 3P renormalized
     Message from routine setup:
     using ibrav=0 with symmetry is DISCOURAGED, use correct ibrav instead

     R & G space division:  proc/nbgrp/npool/nimage =       4
     Subspace diagonalization in iterative solution of the eigenvalue problem:
     a serial algorithm will be used


     Parallelization info
     --------------------
     sticks:   dense  smooth     PW     G-vecs:    dense   smooth      PW
     Min         148     148     46                14080    14080    2320
     Max         149     149     47                14101    14101    2331
     Sum         595     595    187                56365    56365    9299

     Using Slab Decomposition



     bravais-lattice index     =            0
     lattice parameter (alat)  =       6.0471  a.u.
     unit-cell volume          =     897.6736 (a.u.)^3
     number of atoms/cell      =            4
     number of atomic types    =            2
     number of electrons       =        18.00
     number of Kohn-Sham states=            9
     kinetic-energy cutoff     =      60.0000  Ry
     charge density cutoff     =     240.0000  Ry
     scf convergence threshold =      1.0E-06
     mixing beta               =       0.7000
     number of iterations used =            8  plain     mixing
     Exchange-correlation= SLA  PW   PBX  PBC
                           (   1   4   3   4   0   0   0)

     celldm(1)=   6.047124  celldm(2)=   0.000000  celldm(3)=   0.000000
     celldm(4)=   0.000000  celldm(5)=   0.000000  celldm(6)=   0.000000

     crystal axes: (cart. coord. in units of alat)
               a(1) = (   1.000000   0.000000   0.000000 )  
               a(2) = (   0.500000   0.866025   0.000000 )  
               a(3) = (   0.000000   0.000000   4.687500 )  

     reciprocal axes: (cart. coord. in units 2 pi/alat)
               b(1) = (  1.000000 -0.577350  0.000000 )  
               b(2) = (  0.000000  1.154701  0.000000 )  
               b(3) = (  0.000000  0.000000  0.213333 )  


     PseudoPot. # 1 for B  read from file:
     /home/aljawimth/maj/pseudo/B.pbe-n-kjpaw_psl.1.0.0.UPF
     MD5 check sum: 8c825a5969375aca5c2c6ad5945b3059
     Pseudo is Projector augmented-wave + core cor, Zval =  3.0
     Generated using &quot;atomic&quot; code by A. Dal Corso  v.6.3
     Shape of augmentation charge: PSQ
     Using radial grid of 1059 points,  4 beta functions with: 
                l(1) =   0
                l(2) =   0
                l(3) =   1
                l(4) =   1
     Q(r) pseudized with 0 coefficients 


     PseudoPot. # 2 for S  read from file:
     /home/aljawimth/maj/pseudo/S.pbe-n-kjpaw_psl.1.0.0.UPF
     MD5 check sum: fb45dfebcf3e72a4e1bd4a866ec2e262
     Pseudo is Projector augmented-wave + core cor, Zval =  6.0
     Generated using &quot;atomic&quot; code by A. Dal Corso  v.6.3
     Shape of augmentation charge: PSQ
     Using radial grid of 1151 points,  6 beta functions with: 
                l(1) =   0
                l(2) =   0
                l(3) =   1
                l(4) =   1
                l(5) =   2
                l(6) =   2
     Q(r) pseudized with 0 coefficients 


     atomic species   valence    mass     pseudopotential
        B              3.00    10.81100     B ( 1.00)
        S              6.00    32.06500     S ( 1.00)

      6 Sym. Ops. (no inversion) found



   Cartesian axes

     site n.     atom                  positions (alat units)
         1           S   tau(   1) = (   0.5000000   0.2886751   2.5781250  )
         2           B   tau(   2) = (   1.0000000   0.5773503   2.3437500  )
         3           B   tau(   3) = (   1.0000000   0.5773503   1.7343750  )
         4           S   tau(   4) = (   0.5000000   0.2886751   1.5000000  )

     number of k points=    33
                       cart. coord. in units 2pi/alat
        k(    1) = (   0.0000000   0.0000000   0.0000000), wk =   0.0069204
        k(    2) = (   0.0000000   0.0679236   0.0000000), wk =   0.0415225
        k(    3) = (   0.0000000   0.1358471   0.0000000), wk =   0.0415225
        k(    4) = (   0.0000000   0.2037707   0.0000000), wk =   0.0415225
        k(    5) = (   0.0000000   0.2716942   0.0000000), wk =   0.0415225
        k(    6) = (   0.0000000   0.3396178   0.0000000), wk =   0.0415225
        k(    7) = (   0.0000000   0.4075414   0.0000000), wk =   0.0415225
        k(    8) = (   0.0000000   0.4754649   0.0000000), wk =   0.0415225
        k(    9) = (   0.0000000   0.5433885   0.0000000), wk =   0.0415225
        k(   10) = (   0.0588235   0.1018853   0.0000000), wk =   0.0415225
        k(   11) = (   0.0588235   0.1698089   0.0000000), wk =   0.0830450
        k(   12) = (   0.0588235   0.2377325   0.0000000), wk =   0.0830450
        k(   13) = (   0.0588235   0.3056560   0.0000000), wk =   0.0830450
        k(   14) = (   0.0588235   0.3735796   0.0000000), wk =   0.0830450
        k(   15) = (   0.0588235   0.4415031   0.0000000), wk =   0.0830450
        k(   16) = (   0.0588235   0.5094267   0.0000000), wk =   0.0830450
        k(   17) = (   0.0588235  -0.5773503   0.0000000), wk =   0.0415225
        k(   18) = (   0.1176471   0.2037707   0.0000000), wk =   0.0415225
        k(   19) = (   0.1176471   0.2716942   0.0000000), wk =   0.0830450
        k(   20) = (   0.1176471   0.3396178   0.0000000), wk =   0.0830450
        k(   21) = (   0.1176471   0.4075414   0.0000000), wk =   0.0830450
        k(   22) = (   0.1176471   0.4754649   0.0000000), wk =   0.0830450
        k(   23) = (   0.1176471  -0.6113121   0.0000000), wk =   0.0830450
        k(   24) = (   0.1764706   0.3056560   0.0000000), wk =   0.0415225
        k(   25) = (   0.1764706   0.3735796   0.0000000), wk =   0.0830450
        k(   26) = (   0.1764706   0.4415031   0.0000000), wk =   0.0830450
        k(   27) = (   0.1764706  -0.6452738   0.0000000), wk =   0.0830450
        k(   28) = (   0.1764706  -0.5773503   0.0000000), wk =   0.0415225
        k(   29) = (   0.2352941   0.4075414   0.0000000), wk =   0.0415225
        k(   30) = (   0.2352941  -0.6792356   0.0000000), wk =   0.0830450
        k(   31) = (   0.2352941  -0.6113121   0.0000000), wk =   0.0830450
        k(   32) = (   0.2941176  -0.6452738   0.0000000), wk =   0.0415225
        k(   33) = (   0.2941176  -0.5773503   0.0000000), wk =   0.0415225

     Dense  grid:    56365 G-vectors     FFT dimensions: (  30,  30, 144)

     Estimated max dynamical RAM per process >      61.08 MB

     Estimated total dynamical RAM >     244.31 MB

     Check: negative core charge=   -0.000001

     Initial potential from superposition of free atoms

     starting charge      17.9994, renormalised to      18.0000

     negative rho (up, down):  7.156E-05 0.000E+00
     Starting wfcs are   16 randomized atomic wfcs
     Checking if some PAW data can be deallocated... 

     total cpu time spent up to now is        2.5 secs

     Self-consistent Calculation

     iteration #  1     ecut=    60.00 Ry     beta= 0.70
     Davidson diagonalization with overlap
     ethr =  1.00E-02,  avg # of iterations =  2.0

     Threshold (ethr) on eigenvalues was too large:
     Diagonalizing with lowered threshold

     Davidson diagonalization with overlap
     ethr =  8.53E-04,  avg # of iterations =  1.8

     negative rho (up, down):  7.230E-05 0.000E+00

     total cpu time spent up to now is        7.2 secs

     total energy              =    -155.53324063 Ry
     estimated scf accuracy    <       0.16899917 Ry

     iteration #  2     ecut=    60.00 Ry     beta= 0.70
     Davidson diagonalization with overlap
     ethr =  9.39E-04,  avg # of iterations =  3.0

     negative rho (up, down):  6.514E-05 0.000E+00

     total cpu time spent up to now is        9.7 secs

     total energy              =    -155.54709101 Ry
     estimated scf accuracy    <       0.11699195 Ry

     iteration #  3     ecut=    60.00 Ry     beta= 0.70
     Davidson diagonalization with overlap
     ethr =  6.50E-04,  avg # of iterations =  2.1

     negative rho (up, down):  7.077E-05 0.000E+00

     total cpu time spent up to now is       12.1 secs

     total energy              =    -155.57734417 Ry
     estimated scf accuracy    <       0.00585313 Ry

     iteration #  4     ecut=    60.00 Ry     beta= 0.70
     Davidson diagonalization with overlap
     ethr =  3.25E-05,  avg # of iterations =  2.6

     negative rho (up, down):  7.764E-05 0.000E+00

     total cpu time spent up to now is       14.6 secs

     total energy              =    -155.57809528 Ry
     estimated scf accuracy    <       0.00157924 Ry

     iteration #  5     ecut=    60.00 Ry     beta= 0.70
     Davidson diagonalization with overlap
     ethr =  8.77E-06,  avg # of iterations =  2.0

     negative rho (up, down):  8.289E-05 0.000E+00

     total cpu time spent up to now is       16.8 secs

     total energy              =    -155.57820237 Ry
     estimated scf accuracy    <       0.00016626 Ry

     iteration #  6     ecut=    60.00 Ry     beta= 0.70
     Davidson diagonalization with overlap
     ethr =  9.24E-07,  avg # of iterations =  3.7

     negative rho (up, down):  8.299E-05 0.000E+00

     total cpu time spent up to now is       19.7 secs

     total energy              =    -155.57829730 Ry
     estimated scf accuracy    <       0.00010272 Ry

     iteration #  7     ecut=    60.00 Ry     beta= 0.70
     Davidson diagonalization with overlap
     ethr =  5.71E-07,  avg # of iterations =  1.8

     negative rho (up, down):  8.301E-05 0.000E+00

     total cpu time spent up to now is       21.7 secs

     total energy              =    -155.57829422 Ry
     estimated scf accuracy    <       0.00001956 Ry

     iteration #  8     ecut=    60.00 Ry     beta= 0.70
     Davidson diagonalization with overlap
     ethr =  1.09E-07,  avg # of iterations =  3.7

     negative rho (up, down):  8.324E-05 0.000E+00

     total cpu time spent up to now is       24.5 secs

     total energy              =    -155.57830545 Ry
     estimated scf accuracy    <       0.00001161 Ry

     iteration #  9     ecut=    60.00 Ry     beta= 0.70
     Davidson diagonalization with overlap
     ethr =  6.45E-08,  avg # of iterations =  1.5

     negative rho (up, down):  8.329E-05 0.000E+00

     total cpu time spent up to now is       26.7 secs

     total energy              =    -155.57830509 Ry
     estimated scf accuracy    <       0.00000379 Ry

     iteration # 10     ecut=    60.00 Ry     beta= 0.70
     Davidson diagonalization with overlap
     ethr =  2.10E-08,  avg # of iterations =  2.2

     negative rho (up, down):  8.338E-05 0.000E+00

     total cpu time spent up to now is       29.4 secs

     End of self-consistent calculation

          k = 0.0000 0.0000 0.0000 (  7035 PWs)   bands (ev):

   -16.3023 -15.7422  -7.3625  -3.9576  -2.7760  -2.7760  -2.2834  -2.2834
    -0.0653

          k = 0.0000 0.0679 0.0000 (  7069 PWs)   bands (ev):

   -16.2536 -15.6949  -7.3190  -3.9238  -3.1328  -2.8785  -2.6273  -2.3765
    -0.0589

          k = 0.0000 0.1358 0.0000 (  7081 PWs)   bands (ev):

   -16.1088 -15.5544  -7.1957  -3.9761  -3.8613  -3.4204  -3.1455  -2.6220
    -0.0924

          k = 0.0000 0.2038 0.0000 (  7067 PWs)   bands (ev):

   -15.8723 -15.3256  -7.0299  -4.9689  -4.5677  -3.5814  -3.4945  -2.9476
    -0.2299

          k = 0.0000 0.2717 0.0000 (  7055 PWs)   bands (ev):

   -15.5530 -15.0185  -7.0224  -5.7530  -5.6403  -3.8540  -3.3615  -3.2872
    -0.5104

          k = 0.0000 0.3396 0.0000 (  7069 PWs)   bands (ev):

   -15.1679 -14.6512  -7.6253  -6.6744  -5.8004  -4.1775  -3.5954  -3.0965
    -0.9354

          k = 0.0000 0.4075 0.0000 (  7059 PWs)   bands (ev):

   -14.7493 -14.2574  -8.4663  -7.5909  -5.4385  -4.4372  -3.8443  -2.8283
    -1.4598

          k = 0.0000 0.4755 0.0000 (  7035 PWs)   bands (ev):

   -14.3597 -13.8985  -9.1835  -8.3073  -4.9986  -4.6174  -4.0176  -2.6033
    -1.9970

          k = 0.0000 0.5434 0.0000 (  7020 PWs)   bands (ev):

   -14.1072 -13.6714  -9.6075  -8.7155  -4.7094  -4.6608  -4.1063  -2.4726
    -2.3869

          k = 0.0588 0.1019 0.0000 (  7083 PWs)   bands (ev):

   -16.1568 -15.6010  -7.2354  -3.8684  -3.7041  -3.1786  -3.0890  -2.5671
    -0.0735

          k = 0.0588 0.1698 0.0000 (  7091 PWs)   bands (ev):

   -15.9660 -15.4162  -7.0871  -4.5713  -4.1724  -3.6251  -3.4483  -2.8964
    -0.1578

          k = 0.0588 0.2377 0.0000 (  7074 PWs)   bands (ev):

   -15.6878 -15.1478  -6.9661  -5.4513  -5.1615  -3.8478  -3.4603  -3.2652
    -0.3624

          k = 0.0588 0.3057 0.0000 (  7073 PWs)   bands (ev):

   -15.3343 -14.8093  -7.2654  -6.1916  -5.8394  -4.2203  -3.6315  -3.2024
    -0.7123

          k = 0.0588 0.3736 0.0000 (  7075 PWs)   bands (ev):

   -14.9291 -14.4256  -8.0495  -7.1531  -5.6085  -4.5273  -3.9304  -2.9343
    -1.1897

          k = 0.0588 0.4415 0.0000 (  7042 PWs)   bands (ev):

   -14.5173 -14.0421  -8.8389  -7.9662  -5.2140  -4.7303  -4.1554  -2.6836
    -1.7329

          k = 0.0588 0.5094 0.0000 (  7028 PWs)   bands (ev):

   -14.1828 -13.7381  -9.4198  -8.5341  -5.0140  -4.6535  -4.2942  -2.5012
    -2.2271

          k = 0.0588-0.5774 0.0000 (  7006 PWs)   bands (ev):

   -14.0479 -13.6179  -9.6393  -8.7432  -5.0265  -4.4901  -4.3410  -2.4527
    -2.4337

          k = 0.1176 0.2038 0.0000 (  7085 PWs)   bands (ev):

   -15.7332 -15.1916  -6.9657  -5.2639  -4.9446  -3.9381  -3.4948  -3.3325
    -0.3064

          k = 0.1176 0.2717 0.0000 (  7065 PWs)   bands (ev):

   -15.4195 -14.8905  -7.0746  -5.8365  -5.7385  -4.4413  -3.8217  -3.2559
    -0.5775

          k = 0.1176 0.3396 0.0000 (  7058 PWs)   bands (ev):

   -15.0422 -14.5318  -7.6840  -6.7427  -5.6638  -4.8585  -4.2307  -3.0000
    -0.9808

          k = 0.1176 0.4075 0.0000 (  7047 PWs)   bands (ev):

   -14.6340 -14.1491  -8.4540  -7.5746  -5.4124  -5.0627  -4.5487  -2.7411
    -1.4854

          k = 0.1176 0.4755 0.0000 (  7028 PWs)   bands (ev):

   -14.2565 -13.8027  -9.1181  -8.2368  -5.4982  -4.7640  -4.7487  -2.5245
    -2.0160

          k = 0.1176-0.6113 0.0000 (  6997 PWs)   bands (ev):

   -14.0138 -13.5852  -9.5135  -8.6166  -5.5941  -4.8723  -4.4082  -2.4161
    -2.3989

          k = 0.1765 0.3057 0.0000 (  7073 PWs)   bands (ev):

   -15.0807 -14.5680  -7.5283  -6.5528  -5.6385  -5.0676  -4.4024  -3.0231
    -0.9030

          k = 0.1765 0.3736 0.0000 (  7049 PWs)   bands (ev):

   -14.6957 -14.2059  -8.1653  -7.2703  -5.6085  -5.2767  -4.8962  -2.7729
    -1.3348

          k = 0.1765 0.4415 0.0000 (  7019 PWs)   bands (ev):

   -14.3094 -13.8490  -8.7987  -7.9152  -5.9780  -5.2530  -4.8338  -2.5431
    -1.8348

          k = 0.1765-0.6453 0.0000 (  7009 PWs)   bands (ev):

   -14.0012 -13.5709  -9.2787  -8.3812  -6.1982  -5.4648  -4.3912  -2.3778
    -2.3131

          k = 0.1765-0.5774 0.0000 (  7010 PWs)   bands (ev):

   -13.8787 -13.4626  -9.4621  -8.5548  -6.2707  -5.5348  -4.1702  -2.5473
    -2.3170

          k = 0.2353 0.4075 0.0000 (  7015 PWs)   bands (ev):

   -14.3286 -13.8658  -8.6460  -7.7581  -6.1930  -5.4751  -4.8650  -2.5503
    -1.7630

          k = 0.2353-0.6792 0.0000 (  7033 PWs)   bands (ev):

   -13.9991 -13.5670  -9.0644  -8.1632  -6.6154  -5.8823  -4.3960  -2.3686
    -2.2267

          k = 0.2353-0.6113 0.0000 (  7017 PWs)   bands (ev):

   -13.7941 -13.3852  -9.3212  -8.4039  -6.8280  -6.0875  -4.0086  -2.6109
    -2.2653

          k = 0.2941-0.6453 0.0000 (  7028 PWs)   bands (ev):

   -13.7658 -13.3590  -9.2363  -8.3129  -7.0571  -6.3182  -3.9530  -2.6263
    -2.2477

          k = 0.2941-0.5774 0.0000 (  7014 PWs)   bands (ev):

   -13.6774 -13.2813  -9.2970  -8.3628  -7.2149  -6.4749  -3.7029  -2.8593
    -2.2043

     highest occupied level (ev):    -0.0589

!    total energy              =    -155.57830516 Ry
     total all-electron energy =     -1696.259241 Ry
     estimated scf accuracy    <       0.00000052 Ry

     The total energy is the sum of the following terms:
     one-electron contribution =    -231.93629621 Ry
     hartree contribution      =     120.97011137 Ry
     xc contribution           =     -15.81674807 Ry
     ewald contribution        =      73.89571359 Ry
     one-center paw contrib.   =    -102.69108584 Ry

     convergence has been achieved in  10 iterations

     Writing all to output data dir ./tmp/BS.save/

     init_run     :      2.33s CPU      2.38s WALL (       1 calls)
     electrons    :     25.98s CPU     26.90s WALL (       1 calls)

     Called by init_run:
     wfcinit      :      1.19s CPU      1.21s WALL (       1 calls)
     potinit      :      0.30s CPU      0.31s WALL (       1 calls)
     hinit0       :      0.57s CPU      0.58s WALL (       1 calls)

     Called by electrons:
     c_bands      :     19.82s CPU     20.25s WALL (      11 calls)
     sum_band     :      3.66s CPU      3.98s WALL (      11 calls)
     v_of_rho     :      0.22s CPU      0.23s WALL (      11 calls)
     newd         :      0.76s CPU      0.94s WALL (      11 calls)
     PAW_pot      :      1.69s CPU      1.70s WALL (      11 calls)
     mix_rho      :      0.04s CPU      0.04s WALL (      11 calls)

     Called by c_bands:
     init_us_2    :      0.65s CPU      0.66s WALL (     759 calls)
     init_us_2:cp :      0.65s CPU      0.66s WALL (     759 calls)
     cegterg      :     18.36s CPU     18.76s WALL (     363 calls)

     Called by *egterg:
     cdiaghg      :      0.17s CPU      0.17s WALL (    1202 calls)
     h_psi        :     14.28s CPU     14.67s WALL (    1268 calls)
     s_psi        :      2.00s CPU      2.01s WALL (    1268 calls)
     g_psi        :      0.05s CPU      0.06s WALL (     872 calls)

     Called by h_psi:
     h_psi:calbec :      2.42s CPU      2.48s WALL (    1268 calls)
     vloc_psi     :      9.80s CPU     10.10s WALL (    1268 calls)
     add_vuspsi   :      2.00s CPU      2.02s WALL (    1268 calls)

     General routines
     calbec       :      3.24s CPU      3.33s WALL (    1631 calls)
     fft          :      0.39s CPU      0.40s WALL (     122 calls)
     ffts         :      0.01s CPU      0.01s WALL (      11 calls)
     fftw         :     10.21s CPU     10.56s WALL (   22083 calls)

     Parallel routines

     PWSCF        :     28.51s CPU     29.54s WALL


   This run was terminated on:  15:28:11  19Jan2024            

=------------------------------------------------------------------------------=
   JOB DONE.
=------------------------------------------------------------------------------=
